 Gaussian 09, Revision D.01,
 Gaussian 09:  ES64L-G09RevD.01 24-Apr-2013

 ----------------------------------------------------------------------
 #P upm6 scf=qc opt(calcall, ts, noeigentest, cartesian,maxcycle=100) N
 oSymm, guess=mix
 ----------------------------------------------------------------------

 ------------------------------
 Gaussian input prepared by ASE
 ------------------------------
 Symbolic Z-matrix:
 Charge =  0 Multiplicity = 2

 SCF Done:  E(UPM6) = -0.755547673523E-01 a.u. after   12 cycles

 Alpha  occ. eigenvalues --   -1.20745  -1.16448  -1.09344  -1.00183  -0.94643
 Alpha  occ. eigenvalues --   -0.89654  -0.79505  -0.75484  -0.69849  -0.63856
 Alpha  occ. eigenvalues --   -0.61336  -0.59477  -0.58442  -0.57541  -0.56177
 Alpha  occ. eigenvalues --   -0.53670  -0.52298  -0.50755  -0.49750  -0.48982
 Alpha  occ. eigenvalues --   -0.48468  -0.47484  -0.45211  -0.41559  -0.37642
 Alpha  occ. eigenvalues --   -0.32734
 Alpha virt. eigenvalues --    0.00500   0.02831   0.10242   0.10973   0.11603
 Alpha virt. eigenvalues --    0.12857   0.13459   0.14778   0.14902   0.16110
 Alpha virt. eigenvalues --    0.17005   0.17554   0.18363   0.18890   0.18923

  Beta  occ. eigenvalues --   -1.19226  -1.15688  -1.09059  -0.99859  -0.94415
  Beta  occ. eigenvalues --   -0.89128  -0.78851  -0.74403  -0.69221  -0.63148
  Beta  occ. eigenvalues --   -0.60762  -0.59000  -0.57252  -0.57026  -0.55632
  Beta  occ. eigenvalues --   -0.52837  -0.51728  -0.50334  -0.48913  -0.48629
  Beta  occ. eigenvalues --   -0.47748  -0.47011  -0.45060  -0.37846  -0.36601
  Beta virt. eigenvalues --   -0.04549   0.01293   0.04083   0.10640   0.11365
  Beta virt. eigenvalues --    0.11819   0.13065   0.13972   0.15148   0.15930
  Beta virt. eigenvalues --    0.16708   0.17524   0.17863   0.18516   0.18887

 Mulliken charges and spin densities:
               1          2
     1  O   -0.392865   0.143672
     2  C    0.364455   0.302053
     3  C   -0.416955   0.052811
     4  C   -0.226036   0.010874
     5  C   -0.236923  -0.032954
     6  C   -0.396436   0.631664
     7  H    0.175999  -0.021477
     8  C    0.577349  -0.053064
     9  O   -0.495391   0.081239
    10  C   -0.632751  -0.002003
    11  H    0.179850  -0.137223
    12  H    0.181743   0.005584
    13  H    0.182075  -0.000612
    14  H    0.141433  -0.000348
    15  H    0.138040   0.000416
    16  H    0.146970   0.018365
    17  H    0.140108   0.001967
    18  H    0.188643  -0.000501
    19  H    0.182884  -0.000191
    20  H    0.197807  -0.000272
 Sum of Mulliken charges =   0.00000   1.00000

 Dipole moment (field-independent basis, Debye):
    X=              2.8729    Y=              3.6109    Z=              3.1688  Tot=              5.5976
 N-N= 2.734911595429D+02 E-N=-4.825942387100D+02  KE=-3.063304840197D+01
  Exact polarizability:  48.745   8.283  71.242  -0.451 -17.989 107.729
 Approx polarizability:  34.598   6.501  48.585   3.855  -7.619  58.374
 Leave Link  601 at Sat Feb 20 12:20:28 2021, MaxMem=    33554432 cpu:         0.0
 (Enter /cm/shared/apps/Gaussian09/g09/l701.exe)
 Compute integral second derivatives.
 ... and contract with generalized density number  0.
 Leave Link  701 at Sat Feb 20 12:20:28 2021, MaxMem=    33554432 cpu:         0.1
 (Enter /cm/shared/apps/Gaussian09/g09/l702.exe)
 L702 exits ... SP integral derivatives will be done elsewhere.

 Optimization completed.
    -- Stationary point found.

                          Input orientation:
 ---------------------------------------------------------------------
 Center     Atomic      Atomic             Coordinates (Angstroms)
 Number     Number       Type             X           Y           Z
 ---------------------------------------------------------------------
      1          8           0       -1.060808   -2.280078    1.752850
      2          6           0       -0.777912   -1.187001    1.377787
      3          6           0       -0.227653   -0.022738    2.136718
      4          6           0       -0.384801    1.291113    1.363213
      5          6           0        0.105238    1.177094   -0.092259
      6          6           0       -0.701967    0.177855   -0.864855
      7          1           0       -1.757460    0.431630   -0.999579
      8          6           0       -0.113860   -0.562309   -2.008236
      9          8           0       -0.811728   -0.910175   -2.940918
     10          6           0        1.352434   -0.896652   -1.970622
     11          1           0       -0.920799   -0.886962    0.111479
     12          1           0       -0.720188    0.049906    3.130247
     13          1           0        0.844742   -0.219399    2.357859
     14          1           0       -1.447127    1.608384    1.376822
     15          1           0        0.176072    2.093639    1.881096
     16          1           0        0.027600    2.171763   -0.583587
     17          1           0        1.184452    0.925150   -0.100119
     18          1           0        1.967866   -0.012280   -2.180053
     19          1           0        1.667382   -1.306212   -1.004987
     20          1           0        1.598517   -1.642728   -2.742857
 ---------------------------------------------------------------------

 ******    1 imaginary frequencies (negative Signs) ******

                      1                      2                      3
                      A                      A                      A
 Frequencies --  -2403.7984                24.6478                58.1226
 Red. masses --      1.1348                 4.2166                 2.7571
 Frc consts  --      3.8634                 0.0015                 0.0055
 IR Inten    --   5330.8529                 4.4604                 2.3911

                      4                      5                      6
                      A                      A                      A
 Frequencies --     69.4880                88.4338               199.2616
 Red. masses --      4.4071                 1.0733                 2.5411
 Frc consts  --      0.0125                 0.0049                 0.0594
 IR Inten    --      2.6714                 0.3091                 3.2318

                      7                      8                      9
                      A                      A                      A
 Frequencies --    251.7755               299.0281               328.2022
 Red. masses --      1.8505                 2.7789                 5.6528
 Frc consts  --      0.0691                 0.1464                 0.3588
 IR Inten    --      0.7401                 5.1148                 4.3066

                     10                     11                     12
                      A                      A                      A
 Frequencies --    373.2340               449.2092               480.8749
 Red. masses --      4.7490                 3.4589                 3.3937
 Frc consts  --      0.3898                 0.4112                 0.4624
 IR Inten    --      3.5853                12.9572                 8.5259

                     13                     14                     15
                      A                      A                      A
 Frequencies --    503.5581               548.1694               590.9191
 Red. masses --      3.5284                 2.6873                 2.6596
 Frc consts  --      0.5271                 0.4758                 0.5472
 IR Inten    --     14.2027                11.1075                20.5837

                     16                     17                     18
                      A                      A                      A
 Frequencies --    765.6940               834.9635               877.2133
 Red. masses --      1.4110                 1.4583                 1.5848
 Frc consts  --      0.4874                 0.5990                 0.7185
 IR Inten    --     36.1002                24.4201                18.6494

                     19                     20                     21
                      A                      A                      A
 Frequencies --    917.2051               962.3711               992.0686
 Red. masses --      2.0491                 1.9527                 1.4287
 Frc consts  --      1.0157                 1.0655                 0.8285
 IR Inten    --     16.1837                51.2191                 2.7842

                     22                     23                     24
                      A                      A                      A
 Frequencies --   1001.3766              1026.7826              1050.9552
 Red. masses --      1.5247                 1.7145                 1.7310
 Frc consts  --      0.9008                 1.0650                 1.1265
 IR Inten    --     19.0897                84.3236                41.7081

                     25                     26                     27
                      A                      A                      A
 Frequencies --   1079.0039              1096.2974              1146.1769
 Red. masses --      1.4926                 1.3667                 1.6034
 Frc consts  --      1.0238                 0.9678                 1.2411
 IR Inten    --     25.8783                42.8742                31.8307

                     28                     29                     30
                      A                      A                      A
 Frequencies --   1165.5900              1188.1728              1211.9995
 Red. masses --      1.6204                 1.7600                 1.4528
 Frc consts  --      1.2971                 1.4639                 1.2574
 IR Inten    --      2.2614                 1.6192                27.4355

                     31                     32                     33
                      A                      A                      A
 Frequencies --   1220.4207              1225.5630              1229.9097
 Red. masses --      1.0967                 1.1346                 1.0730
 Frc consts  --      0.9624                 1.0040                 0.9563
 IR Inten    --    100.4714                52.5078                68.6141

                     34                     35                     36
                      A                      A                      A
 Frequencies --   1256.1395              1267.7543              1274.2930
 Red. masses --      1.3449                 1.5362                 1.3584
 Frc consts  --      1.2503                 1.4547                 1.2996
 IR Inten    --     23.5716                43.8300                 5.5115

                     37                     38                     39
                      A                      A                      A
 Frequencies --   1284.5192              1303.0496              1316.4182
 Red. masses --      1.1017                 1.8587                 1.5135
 Frc consts  --      1.0710                 1.8594                 1.5453
 IR Inten    --     21.7986               193.2561               172.6120

                     40                     41                     42
                      A                      A                      A
 Frequencies --   1320.5795              1358.9634              1452.9946
 Red. masses --      1.3244                 3.7478                 1.1052
 Frc consts  --      1.3608                 4.0780                 1.3747
 IR Inten    --     64.6500               115.7645                16.7954

                     43                     44                     45
                      A                      A                      A
 Frequencies --   1767.2293              1885.5147              2655.2608
 Red. masses --     11.7584                10.8971                 1.0790
 Frc consts  --     21.6364                22.8255                 4.4823
 IR Inten    --    471.9214               370.2810                46.1355

                     46                     47                     48
                      A                      A                      A
 Frequencies --   2660.9507              2674.1505              2687.8327
 Red. masses --      1.0818                 1.0874                 1.0869
 Frc consts  --      4.5132                 4.5816                 4.6264
 IR Inten    --     27.4059                78.5520               106.0204

                     49                     50                     51
                      A                      A                      A
 Frequencies --   2697.9228              2723.1897              2735.0925
 Red. masses --      1.0881                 1.0612                 1.0510
 Frc consts  --      4.6663                 4.6365                 4.6321
 IR Inten    --     80.2851               109.3904                85.7164

                     52                     53                     54
                      A                      A                      A
 Frequencies --   2738.2255              2742.7727              2789.7147
 Red. masses --      1.0493                 1.0564                 1.0309
 Frc consts  --      4.6355                 4.6821                 4.7272
 IR Inten    --     60.4882                59.5050                68.0904

 - Thermochemistry -
 -------------------
 Temperature   298.150 Kelvin.  Pressure   1.00000 Atm.
 Atom     1 has atomic number  8 and mass  15.99491

 Molecular mass:   127.07590 amu.
 Principal axes and moments of inertia in atomic units:
                           1         2         3
     Eigenvalues --   817.623471761.432212150.46104
           X           -0.14807   0.23150   0.96150
           Y            0.03999   0.97282  -0.22807
           Z            0.98817  -0.00468   0.15330
 This molecule is an asymmetric top.
 Rotational symmetry number  1.
 Warning -- assumption of classical behavior for rotation
           may cause significant error
 Rotational temperatures (Kelvin)      0.10593     0.04917     0.04028
 Rotational constants (GHZ):           2.20730     1.02459     0.83923
    1 imaginary frequencies ignored.
 Zero-point vibrational energy     393866.0 (Joules/Mol)
                                   94.13624 (Kcal/Mol)
 Warning -- explicit consideration of  14 degrees of freedom as
           vibrations may cause significant error
 Vibrational temperatures:     35.46    83.63    99.98   127.24   286.69
          (Kelvin)            362.25   430.23   472.21   537.00   646.31
                              691.87   724.51   788.69   850.20  1101.66
                             1201.32  1262.11  1319.65  1384.64  1427.36
                             1440.76  1477.31  1512.09  1552.44  1577.33
                             1649.09  1677.02  1709.51  1743.79  1755.91
                             1763.31  1769.56  1807.30  1824.01  1833.42
                             1848.13  1874.80  1894.03  1900.02  1955.24
                             2090.53  2542.65  2712.83  3820.32  3828.51
                             3847.50  3867.19  3881.70  3918.06  3935.18
                             3939.69  3946.23  4013.77

 Zero-point correction=                           0.150016 (Hartree/Particle)
 Thermal correction to Energy=                    0.160096
 Thermal correction to Enthalpy=                  0.161040
 Thermal correction to Gibbs Free Energy=         0.112320
 Sum of electronic and zero-point Energies=              0.074461
 Sum of electronic and thermal Energies=                 0.084541
 Sum of electronic and thermal Enthalpies=               0.085486
 Sum of electronic and thermal Free Energies=            0.036765

                     E (Thermal)             CV                S
                      KCal/Mol        Cal/Mol-Kelvin    Cal/Mol-Kelvin
 Total                  100.462             35.900            102.540
 Electronic               0.000              0.000              1.377
 Translational            0.889              2.981             40.432
 Rotational               0.889              2.981             29.517
 Vibrational             98.684             29.939             31.214
 Vibration     1          0.593              1.985              6.219
 Vibration     2          0.596              1.974              4.520
 Vibration     3          0.598              1.969              4.168
 Vibration     4          0.601              1.957              3.694
 Vibration     5          0.637              1.841              2.140
 Vibration     6          0.664              1.760              1.718
 Vibration     7          0.692              1.676              1.422
 Vibration     8          0.711              1.619              1.269
 Vibration     9          0.745              1.527              1.066
 Vibration    10          0.808              1.363              0.798
 Vibration    11          0.837              1.292              0.708
 Vibration    12          0.859              1.242              0.649
 Vibration    13          0.903              1.144              0.548
 Vibration    14          0.948              1.051              0.466

 Normal termination of Gaussian 09 at Sat Feb 20 12:20:30 2021.
