 Gaussian 09, Revision D.01,
 Gaussian 09:  ES64L-G09RevD.01 24-Apr-2013

 ----------------------------------------------------------------------
 #P b3lyp/3-21G scf=qc opt(calcall, ts, noeigentest, cartesian,maxcycle
 =100)
 ----------------------------------------------------------------------

 ------------------------------
 Gaussian input prepared by ASE
 ------------------------------
 Symbolic Z-matrix:
 Charge =  0 Multiplicity = 2

 SCF Done:  E(UB3LYP) =  -191.344426335     a.u. after    9 cycles
 SCF Done:  E(UB3LYP) =  -191.339553088     a.u. after    9 cycles
 SCF Done:  E(UB3LYP) =  -191.336156549     a.u. after    9 cycles
 SCF Done:  E(UB3LYP) =  -191.332492677     a.u. after   12 cycles
 SCF Done:  E(UB3LYP) =  -191.331551804     a.u. after   10 cycles
 SCF Done:  E(UB3LYP) =  -191.331042543     a.u. after    9 cycles
 SCF Done:  E(UB3LYP) =  -191.331034829     a.u. after    5 cycles
 SCF Done:  E(UB3LYP) =  -191.330956582     a.u. after    5 cycles
 SCF Done:  E(UB3LYP) =  -191.330833038     a.u. after    4 cycles
 SCF Done:  E(UB3LYP) =  -191.330708382     a.u. after    4 cycles
 SCF Done:  E(UB3LYP) =  -191.330519070     a.u. after    4 cycles
 SCF Done:  E(UB3LYP) =  -191.330518798     a.u. after    5 cycles
 SCF Done:  E(UB3LYP) =  -191.330536564     a.u. after    4 cycles
 SCF Done:  E(UB3LYP) =  -191.330541265     a.u. after    4 cycles
 SCF Done:  E(UB3LYP) =  -191.330544428     a.u. after    4 cycles
 SCF Done:  E(UB3LYP) =  -191.330547705     a.u. after    4 cycles
 SCF Done:  E(UB3LYP) =  -191.330548569     a.u. after    4 cycles
 SCF Done:  E(UB3LYP) =  -191.330550951     a.u. after    3 cycles
 SCF Done:  E(UB3LYP) =  -191.330549833     a.u. after    4 cycles
 SCF Done:  E(UB3LYP) =  -191.330551869     a.u. after    3 cycles
 Optimization completed on the basis of negligible forces.
    -- Stationary point found.

                         Standard orientation:
 ---------------------------------------------------------------------
 Center     Atomic      Atomic             Coordinates (Angstroms)
 Number     Number       Type             X           Y           Z
 ---------------------------------------------------------------------
      1          6           0       -2.047333   -0.400197    0.019428
      2          6           0       -0.764996    0.301958   -0.012223
      3          1           0       -2.295935   -0.812012   -0.966023
      4          1           0       -2.853036    0.282487    0.315757
      5          1           0       -2.021909   -1.226524    0.740116
      6          6           0        0.281710    0.906927   -0.027701
      7          1           0        1.223706    1.396210   -0.048020
      8          8           0        2.398173   -0.433553    0.085508
      9          1           0        1.945503   -1.023868   -0.602915
 ---------------------------------------------------------------------

 The electronic state is 2-A.
 Alpha  occ. eigenvalues --  -19.05383 -10.14930 -10.13470 -10.11820  -0.96396
 Alpha  occ. eigenvalues --   -0.78662  -0.71186  -0.53176  -0.46352  -0.43900
 Alpha  occ. eigenvalues --   -0.43851  -0.41733  -0.35665  -0.28454  -0.27125
 Alpha  occ. eigenvalues --   -0.26622
 Alpha virt. eigenvalues --    0.05902   0.06400   0.10974   0.13160   0.16348
 Alpha virt. eigenvalues --    0.19431   0.19563   0.24905   0.49547   0.68511
 Alpha virt. eigenvalues --    0.69931   0.70211   0.78700   0.79366   0.89411

  Beta  occ. eigenvalues --  -19.03131 -10.14940 -10.13335 -10.11827  -0.89892
  Beta  occ. eigenvalues --   -0.78449  -0.71108  -0.52856  -0.46190  -0.43820
  Beta  occ. eigenvalues --   -0.43721  -0.39140  -0.27728  -0.27345  -0.25290
  Beta virt. eigenvalues --   -0.10801   0.05981   0.07161   0.11872   0.13328
  Beta virt. eigenvalues --    0.16444   0.19457   0.19726   0.25062   0.49662
  Beta virt. eigenvalues --    0.68612   0.69992   0.70680   0.78678   0.79558

 Mulliken charges and spin densities:
               1          2
     1  C   -0.662119  -0.008849
     2  C    0.078186   0.109681
     3  H    0.230319   0.000567
     4  H    0.237093   0.005173
     5  H    0.234808   0.004128
     6  C   -0.364575  -0.050480
     7  H    0.263844   0.001437
     8  O   -0.347148   0.974781
     9  H    0.329593  -0.036438
 Sum of Mulliken charges =   0.00000   1.00000

 Dipole moment (field-independent basis, Debye):
    X=             -1.7299    Y=             -1.2190    Z=             -1.1558  Tot=              2.4113
 Quadrupole moment (field-independent basis, Debye-Ang):
   XX=            -22.9139   YY=            -22.3514   ZZ=            -24.6685
   XY=              0.8439   XZ=             -2.6837   YZ=              1.3233

  Exact polarizability:  55.063   5.544  27.110  -0.015   2.031  18.329
 Approx polarizability:  78.527  16.502  37.513   1.754   2.633  22.689

 ******    1 imaginary frequencies (negative Signs) ******

                      1                      2                      3
                      A                      A                      A
 Frequencies --    -72.7132                14.7807               139.3110
 Red. masses --      4.0091                 1.0976                 1.2757
 Frc consts  --      0.0125                 0.0001                 0.0146
 IR Inten    --      5.6449                 0.3708                85.4297

                      4                      5                      6
                      A                      A                      A
 Frequencies --    166.0889               348.2607               355.3732
 Red. masses --      4.3943                 2.3357                 2.4664
 Frc consts  --      0.0714                 0.1669                 0.1835
 IR Inten    --      8.6142                40.8506                38.9129

                      7                      8                      9
                      A                      A                      A
 Frequencies --    377.3648               584.5395               772.2257
 Red. masses --      1.2606                 1.2700                 1.2396
 Frc consts  --      0.1058                 0.2557                 0.4355
 IR Inten    --     46.7746               151.7878                54.2405

                     10                     11                     12
                      A                      A                      A
 Frequencies --    923.8634              1100.3001              1105.5487
 Red. masses --      4.7932                 1.3991                 1.4016
 Frc consts  --      2.4104                 0.9980                 1.0093
 IR Inten    --      1.2579                 4.8080                 5.1312

                     13                     14                     15
                      A                      A                      A
 Frequencies --   1472.2754              1548.4168              1549.4248
 Red. masses --      1.1845                 1.0379                 1.0376
 Frc consts  --      1.5128                 1.4662                 1.4677
 IR Inten    --      0.9676                 9.5399                10.3546

                     16                     17                     18
                      A                      A                      A
 Frequencies --   2226.3040              3043.8765              3099.8586
 Red. masses --      5.8154                 1.0326                 1.0983
 Frc consts  --     16.9825                 5.6368                 6.2182
 IR Inten    --     25.1973                10.5496                 6.6030

                     19                     20                     21
                      A                      A                      A
 Frequencies --   3100.9896              3306.7351              3489.0432
 Red. masses --      1.0988                 1.0670                 1.1641
 Frc consts  --      6.2252                 6.8743                 8.3490
 IR Inten    --      8.8488                10.2594                83.3554

 - Thermochemistry -
 -------------------
 Temperature   298.150 Kelvin.  Pressure   1.00000 Atm.
 Atom     1 has atomic number  6 and mass  12.00000

 Molecular mass:    57.03404 amu.
 Principal axes and moments of inertia in atomic units:
                           1         2         3
     Eigenvalues --    82.65971 625.28638 693.19866
           X            0.99973   0.02208  -0.00745
           Y           -0.02188   0.99942   0.02623
           Z            0.00802  -0.02606   0.99963
 This molecule is an asymmetric top.
 Rotational symmetry number  1.
 Rotational temperatures (Kelvin)      1.04784     0.13852     0.12495
 Rotational constants (GHZ):          21.83338     2.88626     2.60350
    1 imaginary frequencies ignored.
 Zero-point vibrational energy     171811.1 (Joules/Mol)
                                   41.06385 (Kcal/Mol)
 Warning -- explicit consideration of   7 degrees of freedom as
           vibrations may cause significant error
 Vibrational temperatures:     21.27   200.44   238.96   501.07   511.30
          (Kelvin)            542.94   841.02  1111.06  1329.23  1583.08
                             1590.64  2118.27  2227.82  2229.27  3203.15
                             4379.45  4460.00  4461.63  4757.65  5019.95

 Zero-point correction=                           0.065439 (Hartree/Particle)
 Thermal correction to Energy=                    0.071879
 Thermal correction to Enthalpy=                  0.072823
 Thermal correction to Gibbs Free Energy=         0.034151
 Sum of electronic and zero-point Energies=           -191.265112
 Sum of electronic and thermal Energies=              -191.258673
 Sum of electronic and thermal Enthalpies=            -191.257728
 Sum of electronic and thermal Free Energies=         -191.296400

                     E (Thermal)             CV                S
                      KCal/Mol        Cal/Mol-Kelvin    Cal/Mol-Kelvin
 Total                   45.105             19.407             81.392
 Electronic               0.000              0.000              1.377
 Translational            0.889              2.981             38.044
 Rotational               0.889              2.981             25.086
 Vibrational             43.327             13.446             16.885
 Vibration     1          0.593              1.986              7.235
 Vibration     2          0.615              1.914              2.813
 Vibration     3          0.624              1.884              2.479
 Vibration     4          0.726              1.579              1.174
 Vibration     5          0.731              1.564              1.142
 Vibration     6          0.748              1.518              1.050
 Vibration     7          0.941              1.065              0.477

 Normal termination of Gaussian 09 at Tue Jan  5 15:33:46 2021.
