 Gaussian 09, Revision D.01,
 Gaussian 09:  ES64L-G09RevD.01 24-Apr-2013

 ----------------------------------------------------------------------
 #P b3lyp/3-21G scf=qc opt(calcall, ts, noeigentest, cartesian,maxcycle
 =100) NoSymm
 ----------------------------------------------------------------------

 ------------------------------
 Gaussian input prepared by ASE
 ------------------------------
 Symbolic Z-matrix:
 Charge =  0 Multiplicity = 2

 SCF Done:  E(UB3LYP) =  -191.330550244     a.u. after    9 cycles
 SCF Done:  E(UB3LYP) =  -191.330550509     a.u. after    4 cycles
 SCF Done:  E(UB3LYP) =  -191.330550973     a.u. after    2 cycles
 SCF Done:  E(UB3LYP) =  -191.330551006     a.u. after    2 cycles
 Optimization completed.
    -- Stationary point found.

                          Input orientation:
 ---------------------------------------------------------------------
 Center     Atomic      Atomic             Coordinates (Angstroms)
 Number     Number       Type             X           Y           Z
 ---------------------------------------------------------------------
      1          6           0       -7.155698    0.598568    0.453462
      2          6           0       -5.934117    0.819507    1.226354
      3          1           0       -7.490469   -0.442541    0.534184
      4          1           0       -6.985695    0.820021   -0.607216
      5          1           0       -7.965147    1.247738    0.808871
      6          6           0       -4.910409    1.011109    1.840455
      7          1           0       -4.036185    1.174995    2.420137
      8          8           0       -5.096556    1.447975    4.303560
      9          1           0       -5.753275    0.676071    4.291289
 ---------------------------------------------------------------------

 Alpha  occ. eigenvalues --  -19.05384 -10.14932 -10.13470 -10.11821  -0.96397
 Alpha  occ. eigenvalues --   -0.78663  -0.71187  -0.53177  -0.46354  -0.43900
 Alpha  occ. eigenvalues --   -0.43853  -0.41735  -0.35665  -0.28458  -0.27122
 Alpha  occ. eigenvalues --   -0.26627
 Alpha virt. eigenvalues --    0.05904   0.06398   0.10969   0.13161   0.16350
 Alpha virt. eigenvalues --    0.19434   0.19556   0.24904   0.49544   0.68511
 Alpha virt. eigenvalues --    0.69931   0.70208   0.78696   0.79364   0.89410

  Beta  occ. eigenvalues --  -19.03132 -10.14942 -10.13335 -10.11828  -0.89892
  Beta  occ. eigenvalues --   -0.78451  -0.71109  -0.52856  -0.46191  -0.43821
  Beta  occ. eigenvalues --   -0.43724  -0.39141  -0.27729  -0.27349  -0.25288
  Beta virt. eigenvalues --   -0.10805   0.05982   0.07158   0.11866   0.13330
  Beta virt. eigenvalues --    0.16447   0.19460   0.19720   0.25060   0.49658
  Beta virt. eigenvalues --    0.68611   0.69992   0.70676   0.78674   0.79556

 Mulliken charges and spin densities:
               1          2
     1  C   -0.662115  -0.008830
     2  C    0.078123   0.109456
     3  H    0.230514   0.000511
     4  H    0.237159   0.004958
     5  H    0.234532   0.004381
     6  C   -0.364636  -0.050381
     7  H    0.263970   0.001433
     8  O   -0.347210   0.974911
     9  H    0.329664  -0.036439
 Sum of Mulliken charges =   0.00000   1.00000

 Dipole moment (field-independent basis, Debye):
    X=             -1.7582    Y=             -1.4760    Z=             -0.7477  Tot=              2.4143
 Quadrupole moment (field-independent basis, Debye-Ang):
   XX=             -1.2556   YY=            -28.2701   ZZ=            -25.7568
   XY=              7.2488   XZ=              1.2978   YZ=             -6.3618

  Exact polarizability:  37.407   6.024  19.646  14.091   4.170  43.506
 Approx polarizability:  59.348  10.985  25.377  24.735   7.538  53.916

 ******    1 imaginary frequencies (negative Signs) ******

                      1                      2                      3
                      A                      A                      A
 Frequencies --    -75.9657                33.1859               134.8060
 Red. masses --      3.9395                 1.0969                 1.3538
 Frc consts  --      0.0134                 0.0007                 0.0145
 IR Inten    --      6.2853                 0.4063                79.2097

                      4                      5                      6
                      A                      A                      A
 Frequencies --    164.8037               347.4953               353.2076
 Red. masses --      3.7323                 2.0216                 2.5022
 Frc consts  --      0.0597                 0.1438                 0.1839
 IR Inten    --     13.4532                57.0602                31.6321

                      7                      8                      9
                      A                      A                      A
 Frequencies --    375.2032               584.5174               770.9439
 Red. masses --      1.3667                 1.2688                 1.2402
 Frc consts  --      0.1134                 0.2554                 0.4343
 IR Inten    --     38.5214               151.9570                54.2355

                     10                     11                     12
                      A                      A                      A
 Frequencies --    923.8359              1100.4746              1105.9176
 Red. masses --      4.7926                 1.3989                 1.4011
 Frc consts  --      2.4100                 0.9982                 1.0097
 IR Inten    --      1.2837                 4.4477                 5.2832

                     13                     14                     15
                      A                      A                      A
 Frequencies --   1472.4760              1548.6309              1549.7879
 Red. masses --      1.1845                 1.0379                 1.0376
 Frc consts  --      1.5132                 1.4666                 1.4683
 IR Inten    --      0.9755                 9.5340                10.1241

                     16                     17                     18
                      A                      A                      A
 Frequencies --   2226.2770              3043.8387              3099.6915
 Red. masses --      5.8141                 1.0326                 1.0983
 Frc consts  --     16.9782                 5.6367                 6.2176
 IR Inten    --     25.3706                10.5609                 6.9714

                     19                     20                     21
                      A                      A                      A
 Frequencies --   3101.0556              3306.9664              3488.8846
 Red. masses --      1.0987                 1.0670                 1.1641
 Frc consts  --      6.2254                 6.8753                 8.3489
 IR Inten    --      8.6078                10.2324                82.0141

 - Thermochemistry -
 -------------------
 Temperature   298.150 Kelvin.  Pressure   1.00000 Atm.
 Atom     1 has atomic number  6 and mass  12.00000

 Molecular mass:    57.03404 amu.
 Principal axes and moments of inertia in atomic units:
                           1         2         3
     Eigenvalues --    82.58008 625.72455 693.62665
           X            0.45103   0.88719  -0.09727
           Y            0.18378   0.01433   0.98286
           Z            0.87338  -0.46118  -0.15659
 This molecule is an asymmetric top.
 Rotational symmetry number  1.
 Rotational temperatures (Kelvin)      1.04885     0.13842     0.12487
 Rotational constants (GHZ):          21.85444     2.88424     2.60189
    1 imaginary frequencies ignored.
 Zero-point vibrational energy     171855.5 (Joules/Mol)
                                   41.07446 (Kcal/Mol)
 Warning -- explicit consideration of   7 degrees of freedom as
           vibrations may cause significant error
 Vibrational temperatures:     47.75   193.96   237.12   499.97   508.19
          (Kelvin)            539.83   840.99  1109.21  1329.19  1583.34
                             1591.17  2118.56  2228.13  2229.80  3203.11
                             4379.40  4459.76  4461.72  4757.98  5019.72

 Zero-point correction=                           0.065456 (Hartree/Particle)
 Thermal correction to Energy=                    0.071872
 Thermal correction to Enthalpy=                  0.072816
 Thermal correction to Gibbs Free Energy=         0.034859
 Sum of electronic and zero-point Energies=           -191.265095
 Sum of electronic and thermal Energies=              -191.258679
 Sum of electronic and thermal Enthalpies=            -191.257735
 Sum of electronic and thermal Free Energies=         -191.295692

                     E (Thermal)             CV                S
                      KCal/Mol        Cal/Mol-Kelvin    Cal/Mol-Kelvin
 Total                   45.100             19.422             79.888
 Electronic               0.000              0.000              1.377
 Translational            0.889              2.981             38.044
 Rotational               0.889              2.981             25.086
 Vibrational             43.323             13.461             15.380
 Vibration     1          0.594              1.983              5.629
 Vibration     2          0.613              1.919              2.876
 Vibration     3          0.623              1.886              2.494
 Vibration     4          0.725              1.580              1.178
 Vibration     5          0.729              1.569              1.152
 Vibration     6          0.746              1.523              1.058
 Vibration     7          0.941              1.065              0.477

 Normal termination of Gaussian 09 at Tue Jan  5 15:49:26 2021.
