 Gaussian 09, Revision D.01,
 Gaussian 09:  ES64L-G09RevD.01 24-Apr-2013

 ----------------------------------------------------------------------
 #P b3lyp/3-21G scf=qc opt(calcall, ts, noeigentest, cartesian,maxcycle
 =100) NoSymm
 ----------------------------------------------------------------------

 ------------------------------
 Gaussian input prepared by ASE
 ------------------------------
 Symbolic Z-matrix:
 Charge =  0 Multiplicity = 2

 SCF Done:  E(UB3LYP) =  -191.321601495     a.u. after    9 cycles
 SCF Done:  E(UB3LYP) =  -191.327010691     a.u. after   10 cycles
 SCF Done:  E(UB3LYP) =  -191.330658321     a.u. after   10 cycles
 SCF Done:  E(UB3LYP) =  -191.330828436     a.u. after    5 cycles
 SCF Done:  E(UB3LYP) =  -191.330959386     a.u. after    5 cycles
 SCF Done:  E(UB3LYP) =  -191.331045236     a.u. after    5 cycles
 SCF Done:  E(UB3LYP) =  -191.331150761     a.u. after    6 cycles
 SCF Done:  E(UB3LYP) =  -191.331253136     a.u. after    5 cycles
 SCF Done:  E(UB3LYP) =  -191.331336436     a.u. after    5 cycles
 SCF Done:  E(UB3LYP) =  -191.331395601     a.u. after    5 cycles
 SCF Done:  E(UB3LYP) =  -191.331436499     a.u. after    4 cycles
 SCF Done:  E(UB3LYP) =  -191.331455501     a.u. after    4 cycles
 SCF Done:  E(UB3LYP) =  -191.331463656     a.u. after    4 cycles
 SCF Done:  E(UB3LYP) =  -191.331465536     a.u. after    4 cycles
 SCF Done:  E(UB3LYP) =  -191.331465749     a.u. after    2 cycles
 SCF Done:  E(UB3LYP) =  -191.331465755     a.u. after    2 cycles
 Optimization completed.
    -- Stationary point found.

                          Input orientation:
 ---------------------------------------------------------------------
 Center     Atomic      Atomic             Coordinates (Angstroms)
 Number     Number       Type             X           Y           Z
 ---------------------------------------------------------------------
      1          6           0       -3.731755   -1.013133    6.489179
      2          6           0       -4.176268    0.341128    6.808044
      3          1           0       -3.377430   -1.083269    5.453948
      4          1           0       -4.565859   -1.712442    6.621694
      5          1           0       -2.915306   -1.321346    7.152977
      6          6           0       -4.601169    1.439984    7.094012
      7          1           0       -4.873440    2.428086    7.367137
      8          8           0       -6.712807    0.561773    7.143925
      9          1           0       -6.747300    0.642119    6.134567
 ---------------------------------------------------------------------

 Alpha  occ. eigenvalues --  -19.02469 -10.14791 -10.14032 -10.12879  -0.93903
 Alpha  occ. eigenvalues --   -0.78957  -0.71530  -0.53626  -0.46433  -0.43989
 Alpha  occ. eigenvalues --   -0.43878  -0.39509  -0.34911  -0.27702  -0.25885
 Alpha  occ. eigenvalues --   -0.23945
 Alpha virt. eigenvalues --    0.05292   0.06041   0.11891   0.13771   0.15124
 Alpha virt. eigenvalues --    0.19441   0.19716   0.24717   0.48477   0.67587
 Alpha virt. eigenvalues --    0.69801   0.72181   0.78511   0.82222   0.88388

  Beta  occ. eigenvalues --  -19.00338 -10.14811 -10.13754 -10.12854  -0.88024
  Beta  occ. eigenvalues --   -0.78434  -0.71278  -0.53446  -0.46242  -0.43812
  Beta  occ. eigenvalues --   -0.43613  -0.37170  -0.28436  -0.27323  -0.23273
  Beta virt. eigenvalues --   -0.07344   0.05482   0.07117   0.12385   0.14297
  Beta virt. eigenvalues --    0.15293   0.19488   0.19957   0.25026   0.48607
  Beta virt. eigenvalues --    0.67736   0.69917   0.73001   0.78501   0.82698

 Mulliken charges and spin densities:
               1          2
     1  C   -0.667278  -0.016929
     2  C    0.124243   0.172931
     3  H    0.229084   0.001650
     4  H    0.245734   0.012605
     5  H    0.236798   0.003950
     6  C   -0.348195  -0.043050
     7  H    0.243846   0.003142
     8  O   -0.373988   0.899035
     9  H    0.309756  -0.033334
 Sum of Mulliken charges =   0.00000   1.00000

 Dipole moment (field-independent basis, Debye):
    X=              1.0435    Y=             -0.4155    Z=             -1.7369  Tot=              2.0685
 Quadrupole moment (field-independent basis, Debye-Ang):
   XX=            -34.8348   YY=            -19.9358   ZZ=            -47.8516
   XY=              0.2867   XZ=             18.4706   YZ=             -2.4793

  Exact polarizability:  40.636  -7.551  38.453  -1.711   5.170  22.333
 Approx polarizability:  53.478 -13.663  60.210  -5.906   9.761  29.883

 ******    1 imaginary frequencies (negative Signs) ******

                      1                      2                      3
                      A                      A                      A
 Frequencies --    -83.5223                86.0158               157.3221
 Red. masses --      5.0642                 1.0692                 9.6448
 Frc consts  --      0.0208                 0.0047                 0.1406
 IR Inten    --      6.0931                 0.0641                 1.5920

                      4                      5                      6
                      A                      A                      A
 Frequencies --    272.5187               312.4936               358.6496
 Red. masses --      1.1447                 3.3754                 2.5924
 Frc consts  --      0.0501                 0.1942                 0.1965
 IR Inten    --     66.2514                10.7438                16.4989

                      7                      8                      9
                      A                      A                      A
 Frequencies --    578.7905               679.1706               723.6125
 Red. masses --      1.0536                 1.1190                 1.2748
 Frc consts  --      0.2080                 0.3041                 0.3933
 IR Inten    --     88.1858                51.8871                50.0176

                     10                     11                     12
                      A                      A                      A
 Frequencies --    923.4199              1090.9187              1108.0376
 Red. masses --      4.7670                 1.4060                 1.4025
 Frc consts  --      2.3949                 0.9859                 1.0145
 IR Inten    --      0.4345                 1.4352                 4.7795

                     13                     14                     15
                      A                      A                      A
 Frequencies --   1461.7050              1543.1826              1550.3565
 Red. masses --      1.1876                 1.0391                 1.0383
 Frc consts  --      1.4949                 1.4580                 1.4704
 IR Inten    --      3.7016                 9.0420                 9.5694

                     16                     17                     18
                      A                      A                      A
 Frequencies --   2209.3972              3045.4300              3103.5900
 Red. masses --      5.9319                 1.0322                 1.0988
 Frc consts  --     17.0604                 5.6402                 6.2360
 IR Inten    --     20.9594                 9.4534                 7.5927

                     19                     20                     21
                      A                      A                      A
 Frequencies --   3105.7819              3306.1104              3502.3257
 Red. masses --      1.0987                 1.0676                 1.1597
 Frc consts  --      6.2442                 6.8756                 8.3812
 IR Inten    --      5.6852                16.4597                62.8290

 - Thermochemistry -
 -------------------
 Temperature   298.150 Kelvin.  Pressure   1.00000 Atm.
 Atom     1 has atomic number  6 and mass  12.00000

 Molecular mass:    57.03404 amu.
 Principal axes and moments of inertia in atomic units:
                           1         2         3
     Eigenvalues --   137.24184 384.08951 503.13432
           X            0.85468   0.51249   0.08289
           Y           -0.48695   0.84674  -0.21425
           Z           -0.17999   0.14275   0.97326
 This molecule is an asymmetric top.
 Rotational symmetry number  1.
 Rotational temperatures (Kelvin)      0.63110     0.22550     0.17215
 Rotational constants (GHZ):          13.15008     4.69875     3.58700
    1 imaginary frequencies ignored.
 Zero-point vibrational energy     174169.3 (Joules/Mol)
                                   41.62746 (Kcal/Mol)
 Warning -- explicit consideration of   6 degrees of freedom as
           vibrations may cause significant error
 Vibrational temperatures:    123.76   226.35   392.09   449.61   516.02
          (Kelvin)            832.75   977.17  1041.12  1328.59  1569.59
                             1594.22  2103.06  2220.29  2230.61  3178.83
                             4381.69  4465.37  4468.52  4756.75  5039.06

 Zero-point correction=                           0.066338 (Hartree/Particle)
 Thermal correction to Energy=                    0.072285
 Thermal correction to Enthalpy=                  0.073229
 Thermal correction to Gibbs Free Energy=         0.037128
 Sum of electronic and zero-point Energies=           -191.265128
 Sum of electronic and thermal Energies=              -191.259181
 Sum of electronic and thermal Enthalpies=            -191.258236
 Sum of electronic and thermal Free Energies=         -191.294337

                     E (Thermal)             CV                S
                      KCal/Mol        Cal/Mol-Kelvin    Cal/Mol-Kelvin
 Total                   45.360             18.726             75.981
 Electronic               0.000              0.000              1.377
 Translational            0.889              2.981             38.044
 Rotational               0.889              2.981             24.787
 Vibrational             43.582             12.765             11.772
 Vibration     1          0.601              1.959              3.749
 Vibration     2          0.621              1.894              2.582
 Vibration     3          0.676              1.724              1.580
 Vibration     4          0.701              1.650              1.349
 Vibration     5          0.733              1.557              1.128
 Vibration     6          0.935              1.077              0.488

 Normal termination of Gaussian 09 at Wed Jan  6 07:17:32 2021.
