 Gaussian 09, Revision D.01,
 Gaussian 09:  ES64L-G09RevD.01 24-Apr-2013

 ----------------------------------------------------------------------
 #P b3lyp/3-21G scf=qc opt(calcall, ts, noeigentest, cartesian,maxcycle
 =100)
 ----------------------------------------------------------------------

 ------------------------------
 Gaussian input prepared by ASE
 ------------------------------
 Symbolic Z-matrix:
 Charge =  0 Multiplicity = 2

 SCF Done:  E(UB3LYP) =  -191.331469640     a.u. after    9 cycles
 SCF Done:  E(UB3LYP) =  -191.331469643     a.u. after    3 cycles
 Optimization completed.
    -- Stationary point found.

                         Standard orientation:
 ---------------------------------------------------------------------
 Center     Atomic      Atomic             Coordinates (Angstroms)
 Number     Number       Type             X           Y           Z
 ---------------------------------------------------------------------
      1          6           0       -1.694079   -0.437494   -0.007659
      2          6           0       -0.540160    0.457670    0.013234
      3          1           0       -2.204585   -0.452835    0.962554
      4          1           0       -1.362730   -1.455462   -0.244849
      5          1           0       -2.416365   -0.123879   -0.770639
      6          6           0        0.453723    1.151875    0.007689
      7          1           0        1.260279    1.840204   -0.019494
      8          8           0        1.723415   -0.748174   -0.112140
      9          1           0        1.619175   -0.854946    0.889964
 ---------------------------------------------------------------------

 The electronic state is 2-A.
 Alpha  occ. eigenvalues --  -19.02472 -10.14789 -10.14032 -10.12876  -0.93905
 Alpha  occ. eigenvalues --   -0.78956  -0.71529  -0.53626  -0.46431  -0.43988
 Alpha  occ. eigenvalues --   -0.43877  -0.39510  -0.34911  -0.27701  -0.25888
 Alpha  occ. eigenvalues --   -0.23949
 Alpha virt. eigenvalues --    0.05293   0.06039   0.11891   0.13770   0.15123
 Alpha virt. eigenvalues --    0.19443   0.19718   0.24718   0.48478   0.67589
 Alpha virt. eigenvalues --    0.69802   0.72182   0.78513   0.82211   0.88390

  Beta  occ. eigenvalues --  -19.00340 -10.14808 -10.13755 -10.12851  -0.88024
  Beta  occ. eigenvalues --   -0.78434  -0.71277  -0.53446  -0.46241  -0.43811
  Beta  occ. eigenvalues --   -0.43612  -0.37170  -0.28434  -0.27323  -0.23275
  Beta virt. eigenvalues --   -0.07343   0.05482   0.07112   0.12386   0.14295
  Beta virt. eigenvalues --    0.15292   0.19489   0.19959   0.25026   0.48608
  Beta virt. eigenvalues --    0.67739   0.69918   0.73001   0.78503   0.82687

 Mulliken charges and spin densities:
               1          2
     1  C   -0.667282  -0.016870
     2  C    0.124229   0.172297
     3  H    0.229071   0.001636
     4  H    0.245787   0.012564
     5  H    0.236778   0.003936
     6  C   -0.348284  -0.042591
     7  H    0.243868   0.003108
     8  O   -0.373930   0.899264
     9  H    0.309765  -0.033345
 Sum of Mulliken charges =   0.00000   1.00000

 Dipole moment (field-independent basis, Debye):
    X=             -1.3853    Y=             -0.0100    Z=              1.5340  Tot=              2.0669
 Quadrupole moment (field-independent basis, Debye-Ang):
   XX=            -22.0639   YY=            -22.5534   ZZ=            -23.8221
   XY=              3.0152   XZ=              2.7935   YZ=             -1.5562

  Exact polarizability:  47.604   2.492  32.845   0.640  -1.209  20.959
 Approx polarizability:  70.382   9.608  46.245  -1.581  -0.390  26.916

 ******    1 imaginary frequencies (negative Signs) ******

                      1                      2                      3
                      A                      A                      A
 Frequencies --    -83.1693                80.1787               158.1246
 Red. masses --      5.0357                 1.0695                 9.6292
 Frc consts  --      0.0205                 0.0041                 0.1419
 IR Inten    --      6.0763                 0.0568                 1.5647

                      4                      5                      6
                      A                      A                      A
 Frequencies --    272.5493               313.0671               359.3045
 Red. masses --      1.1436                 3.3889                 2.5897
 Frc consts  --      0.0501                 0.1957                 0.1970
 IR Inten    --     66.4044                10.5966                16.5016

                      7                      8                      9
                      A                      A                      A
 Frequencies --    581.2749               679.8294               722.7384
 Red. masses --      1.0533                 1.1179                 1.2779
 Frc consts  --      0.2097                 0.3044                 0.3933
 IR Inten    --     87.8797                52.7496                49.5337

                     10                     11                     12
                      A                      A                      A
 Frequencies --    923.4363              1090.7421              1108.0395
 Red. masses --      4.7683                 1.4062                 1.4027
 Frc consts  --      2.3957                 0.9857                 1.0147
 IR Inten    --      0.4379                 1.4393                 4.7881

                     13                     14                     15
                      A                      A                      A
 Frequencies --   1461.4411              1542.8093              1549.9993
 Red. masses --      1.1875                 1.0391                 1.0382
 Frc consts  --      1.4943                 1.4573                 1.4697
 IR Inten    --      3.7219                 8.9836                 9.6116

                     16                     17                     18
                      A                      A                      A
 Frequencies --   2209.8889              3045.4100              3103.6581
 Red. masses --      5.9305                 1.0321                 1.0988
 Frc consts  --     17.0640                 5.6400                 6.2364
 IR Inten    --     20.9384                 9.4409                 7.6242

                     19                     20                     21
                      A                      A                      A
 Frequencies --   3105.7990              3305.6349              3502.6062
 Red. masses --      1.0987                 1.0676                 1.1597
 Frc consts  --      6.2443                 6.8736                 8.3828
 IR Inten    --      5.6514                16.4648                62.8438

 - Thermochemistry -
 -------------------
 Temperature   298.150 Kelvin.  Pressure   1.00000 Atm.
 Atom     1 has atomic number  6 and mass  12.00000

 Molecular mass:    57.03404 amu.
 Principal axes and moments of inertia in atomic units:
                           1         2         3
     Eigenvalues --   137.39847 383.81892 503.01629
           X            0.99800   0.06189   0.01314
           Y           -0.06160   0.99786  -0.02181
           Z           -0.01446   0.02095   0.99968
 This molecule is an asymmetric top.
 Rotational symmetry number  1.
 Rotational temperatures (Kelvin)      0.63038     0.22566     0.17219
 Rotational constants (GHZ):          13.13509     4.70206     3.58784
    1 imaginary frequencies ignored.
 Zero-point vibrational energy     174155.5 (Joules/Mol)
                                   41.62417 (Kcal/Mol)
 Warning -- explicit consideration of   6 degrees of freedom as
           vibrations may cause significant error
 Vibrational temperatures:    115.36   227.51   392.14   450.43   516.96
          (Kelvin)            836.32   978.12  1039.86  1328.62  1569.33
                             1594.22  2102.69  2219.76  2230.10  3179.53
                             4381.66  4465.47  4468.55  4756.07  5039.46

 Zero-point correction=                           0.066332 (Hartree/Particle)
 Thermal correction to Energy=                    0.072287
 Thermal correction to Enthalpy=                  0.073231
 Thermal correction to Gibbs Free Energy=         0.037074
 Sum of electronic and zero-point Energies=           -191.265137
 Sum of electronic and thermal Energies=              -191.259182
 Sum of electronic and thermal Enthalpies=            -191.258238
 Sum of electronic and thermal Free Energies=         -191.294395

                     E (Thermal)             CV                S
                      KCal/Mol        Cal/Mol-Kelvin    Cal/Mol-Kelvin
 Total                   45.361             18.722             76.099
 Electronic               0.000              0.000              1.377
 Translational            0.889              2.981             38.044
 Rotational               0.889              2.981             24.787
 Vibrational             43.583             12.760             11.890
 Vibration     1          0.600              1.963              3.887
 Vibration     2          0.621              1.894              2.572
 Vibration     3          0.676              1.724              1.580
 Vibration     4          0.701              1.649              1.346
 Vibration     5          0.734              1.556              1.125
 Vibration     6          0.938              1.072              0.483

 Normal termination of Gaussian 09 at Wed Jan  6 07:30:25 2021.
