 Gaussian 09, Revision D.01,
 Gaussian 09:  ES64L-G09RevD.01 24-Apr-2013

 ----------------------------------------------------------------------
 #P upm6 scf=qc opt(calcall, ts, noeigentest, cartesian,maxcycle=100) N
 oSymm, guess=mix
 ----------------------------------------------------------------------

 ------------------------------
 Gaussian input prepared by ASE
 ------------------------------
 Symbolic Z-matrix:
 Charge =  0 Multiplicity = 1

 SCF Done:  E(UPM6) = -0.859566180559E-01 a.u. after   13 cycles

 Alpha  occ. eigenvalues --   -1.17904  -1.15507  -1.11423  -1.06954  -1.00742
 Alpha  occ. eigenvalues --   -0.95504  -0.87589  -0.79981  -0.74835  -0.69460
 Alpha  occ. eigenvalues --   -0.62786  -0.61865  -0.60612  -0.59522  -0.58968
 Alpha  occ. eigenvalues --   -0.56784  -0.55257  -0.54448  -0.53915  -0.50452
 Alpha  occ. eigenvalues --   -0.49934  -0.49631  -0.47963  -0.47139  -0.46438
 Alpha  occ. eigenvalues --   -0.44177  -0.43190  -0.38130  -0.37523
 Alpha virt. eigenvalues --   -0.03508   0.00751   0.05570   0.10268   0.11233
 Alpha virt. eigenvalues --    0.12352   0.13359   0.14623   0.15379   0.15729
 Alpha virt. eigenvalues --    0.17017   0.17121   0.17458   0.18089   0.18813

  Beta  occ. eigenvalues --   -1.17905  -1.16728  -1.07253  -1.01177  -0.95804
  Beta  occ. eigenvalues --   -0.95321  -0.88155  -0.80425  -0.74912  -0.70044
  Beta  occ. eigenvalues --   -0.62918  -0.62199  -0.60153  -0.58926  -0.57578
  Beta  occ. eigenvalues --   -0.55150  -0.54806  -0.53559  -0.50572  -0.50415
  Beta  occ. eigenvalues --   -0.50108  -0.49883  -0.48177  -0.46693  -0.44552
  Beta  occ. eigenvalues --   -0.38812  -0.37861  -0.36873  -0.36469
  Beta virt. eigenvalues --   -0.04364   0.00751   0.02527   0.10222   0.11006
  Beta virt. eigenvalues --    0.11989   0.13308   0.14165   0.15016   0.15659
  Beta virt. eigenvalues --    0.16709   0.16979   0.17357   0.17861   0.18759

 Mulliken charges and spin densities:
               1          2
     1  C   -0.212747  -0.003224
     2  C   -0.268357   0.044842
     3  C   -0.244079  -0.949020
     4  C    0.567503   0.094040
     5  C    0.405392  -0.000052
     6  C   -0.447013   0.000981
     7  H    0.149572   0.000212
     8  H    0.152136   0.000208
     9  H    0.158690  -0.032650
    10  H    0.153648  -0.027896
    11  H    0.178689   0.030180
    12  H    0.286070  -0.074709
    13  C   -0.624341   0.002156
    14  H    0.089953   0.000024
    15  H    0.171941  -0.000030
    16  H    0.170891  -0.000029
    17  H    0.191560   0.000856
    18  H    0.198334   0.000537
    19  H    0.184607   0.000542
    20  O   -0.451707  -0.000017
    21  O   -0.310226   1.049074
    22  O   -0.500517  -0.136022
 Sum of Mulliken charges =   0.00000   0.00000

 Dipole moment (field-independent basis, Debye):
    X=             -3.7733    Y=             -3.3990    Z=             -0.1881  Tot=              5.0820
 N-N= 3.158901544502D+02 E-N=-5.595536584677D+02  KE=-3.397792629658D+01
  Exact polarizability:  52.779  17.213  54.099  -8.274  -0.547  73.056
 Approx polarizability:  37.158  14.520  41.296  -3.156  -0.019  42.802
 Leave Link  601 at Tue Feb 16 09:45:57 2021, MaxMem=    33554432 cpu:         0.0
 (Enter /cm/shared/apps/Gaussian09/g09/l701.exe)
 Compute integral second derivatives.
 ... and contract with generalized density number  0.
 Leave Link  701 at Tue Feb 16 09:45:57 2021, MaxMem=    33554432 cpu:         0.1
 (Enter /cm/shared/apps/Gaussian09/g09/l702.exe)
 L702 exits ... SP integral derivatives will be done elsewhere.

 Optimization completed.
    -- Stationary point found.

                          Input orientation:
 ---------------------------------------------------------------------
 Center     Atomic      Atomic             Coordinates (Angstroms)
 Number     Number       Type             X           Y           Z
 ---------------------------------------------------------------------
      1          6           0       -0.283810    0.245649    1.526376
      2          6           0       -0.317091   -0.098064    0.031198
      3          6           0        0.645214    0.691830   -0.753197
      4          6           0        0.763986    0.600646   -2.212734
      5          6           0       -1.298966   -0.232630    3.791140
      6          6           0       -1.271226   -0.609006    2.325795
      7          1           0        0.740061    0.108571    1.931899
      8          1           0       -0.512177    1.321019    1.681791
      9          1           0       -0.104472   -1.183810   -0.113896
     10          1           0       -1.346157    0.048889   -0.369367
     11          1           0        1.324952    1.373053   -0.251881
     12          1           0        3.647362    0.975528   -2.843065
     13          6           0       -0.075494   -0.400266   -2.952382
     14          1           0       -1.946041   -0.868677    4.418319
     15          1           0       -2.295385   -0.508159    1.909651
     16          1           0       -1.018470   -1.684734    2.226913
     17          1           0        0.178053   -1.428418   -2.660371
     18          1           0        0.094590   -0.325977   -4.038387
     19          1           0       -1.147704   -0.254523   -2.778059
     20          8           0       -0.672991    0.690109    4.258375
     21          8           0        3.360380    0.200124   -2.313656
     22          8           0        1.535388    1.338843   -2.814463
 ---------------------------------------------------------------------

 ******    1 imaginary frequencies (negative Signs) ******

                      1                      2                      3
                      A                      A                      A
 Frequencies --    -29.2811                12.5021                23.0583
 Red. masses --      4.2937                 4.2576                 4.6792
 Frc consts  --      0.0022                 0.0004                 0.0015
 IR Inten    --      1.7588                 5.4238                 0.4013

                      4                      5                      6
                      A                      A                      A
 Frequencies --     40.2480                47.4914                83.7780
 Red. masses --      1.8551                 5.9338                 2.4187
 Frc consts  --      0.0018                 0.0079                 0.0100
 IR Inten    --      1.9317                 4.0231                 6.0246

                      7                      8                      9
                      A                      A                      A
 Frequencies --     89.2094                93.1429               102.6105
 Red. masses --      3.6419                 1.1383                 1.7333
 Frc consts  --      0.0171                 0.0058                 0.0108
 IR Inten    --      1.8878                 0.9941                 1.5991

                     10                     11                     12
                      A                      A                      A
 Frequencies --    164.1081               170.5766               207.9868
 Red. masses --      1.5100                 2.1339                 6.9407
 Frc consts  --      0.0240                 0.0366                 0.1769
 IR Inten    --     43.8879                65.0130                 2.0246

                     13                     14                     15
                      A                      A                      A
 Frequencies --    307.0348               328.2433               447.4153
 Red. masses --      4.5978                 4.1868                 1.3060
 Frc consts  --      0.2554                 0.2658                 0.1540
 IR Inten    --      3.3645                10.0288                85.1892

                     16                     17                     18
                      A                      A                      A
 Frequencies --    487.4743               495.6290               517.1240
 Red. masses --      2.0373                 2.6282                 4.2214
 Frc consts  --      0.2852                 0.3804                 0.6651
 IR Inten    --      7.2913                36.5114                21.5523

                     19                     20                     21
                      A                      A                      A
 Frequencies --    645.2594               664.6699               715.2731
 Red. masses --      4.8461                 1.3378                 1.1847
 Frc consts  --      1.1888                 0.3482                 0.3571
 IR Inten    --     10.2896                68.0632                28.0485

                     22                     23                     24
                      A                      A                      A
 Frequencies --    798.1012               915.6893               943.5665
 Red. masses --      1.3919                 1.4374                 3.5001
 Frc consts  --      0.5224                 0.7101                 1.8360
 IR Inten    --      0.0618                 2.5640                 0.9791

                     25                     26                     27
                      A                      A                      A
 Frequencies --   1000.5255              1011.7186              1035.0525
 Red. masses --      1.5238                 1.5455                 2.0425
 Frc consts  --      0.8987                 0.9320                 1.2893
 IR Inten    --     19.6960                84.9669                 7.2357

                     28                     29                     30
                      A                      A                      A
 Frequencies --   1039.9051              1107.7415              1144.7602
 Red. masses --      2.2112                 1.3081                 4.9990
 Frc consts  --      1.4088                 0.9457                 3.8598
 IR Inten    --     17.8610                 9.7920                28.2873

                     31                     32                     33
                      A                      A                      A
 Frequencies --   1159.4268              1167.3691              1177.9922
 Red. masses --      1.8006                 1.2648                 1.0744
 Frc consts  --      1.4261                 1.0155                 0.8784
 IR Inten    --      0.1687                 0.1347                 1.0724

                     34                     35                     36
                      A                      A                      A
 Frequencies --   1188.2847              1210.8246              1224.2367
 Red. masses --      1.5755                 1.0843                 1.0899
 Frc consts  --      1.3107                 0.9366                 0.9624
 IR Inten    --     64.0565                26.1928                96.7692

                     37                     38                     39
                      A                      A                      A
 Frequencies --   1230.2276              1239.2913              1250.7568
 Red. masses --      1.0694                 1.1914                 1.2795
 Frc consts  --      0.9536                 1.0781                 1.1793
 IR Inten    --     75.1772                77.3770                64.6597

                     40                     41                     42
                      A                      A                      A
 Frequencies --   1262.8102              1278.0898              1305.4321
 Red. masses --      1.1068                 1.3043                 1.2189
 Frc consts  --      1.0399                 1.2553                 1.2239
 IR Inten    --     47.2057                34.5732                18.6277

                     43                     44                     45
                      A                      A                      A
 Frequencies --   1315.9153              1318.2423              1326.1343
 Red. masses --      1.8671                 1.2899                 1.9542
 Frc consts  --      1.9049                 1.3207                 2.0248
 IR Inten    --    201.1652                56.1108                55.7621

                     46                     47                     48
                      A                      A                      A
 Frequencies --   1410.0667              1708.7293              1796.3087
 Red. masses --      7.2655                11.6049                11.0409
 Frc consts  --      8.5113                19.9635                20.9902
 IR Inten    --     76.0891               356.5709               246.1006

                     49                     50                     51
                      A                      A                      A
 Frequencies --   2626.2730              2642.5131              2642.8198
 Red. masses --      1.0658                 1.0699                 1.0749
 Frc consts  --      4.3312                 4.4018                 4.4232
 IR Inten    --    110.7054                 1.6077                11.1944

                     52                     53                     54
                      A                      A                      A
 Frequencies --   2657.7346              2678.4469              2687.6105
 Red. masses --      1.0806                 1.0912                 1.0871
 Frc consts  --      4.4972                 4.6124                 4.6265
 IR Inten    --      0.4217               147.0392               115.6799

                     55                     56                     57
                      A                      A                      A
 Frequencies --   2694.6380              2717.7245              2734.5788
 Red. masses --      1.0878                 1.0425                 1.0447
 Frc consts  --      4.6535                 4.5368                 4.6029
 IR Inten    --    116.1623                 5.9862                20.3159

                     58                     59                     60
                      A                      A                      A
 Frequencies --   2741.9604              2750.7370              2788.2840
 Red. masses --      1.0666                 1.0625                 1.0309
 Frc consts  --      4.7247                 4.7366                 4.7222
 IR Inten    --     15.3264               153.0912                67.9363

 - Thermochemistry -
 -------------------
 Temperature   298.150 Kelvin.  Pressure   1.00000 Atm.
 Atom     1 has atomic number  6 and mass  12.00000

 Molecular mass:   144.07864 amu.
 Principal axes and moments of inertia in atomic units:
                           1         2         3
     Eigenvalues --   642.054404386.938344730.29719
           X           -0.40152   0.85049  -0.33979
           Y           -0.06679   0.34283   0.93702
           Z            0.91341   0.39892  -0.08085
 This molecule is an asymmetric top.
 Rotational symmetry number  1.
 Warning -- assumption of classical behavior for rotation
           may cause significant error
 Rotational temperatures (Kelvin)      0.13490     0.01974     0.01831
 Rotational constants (GHZ):           2.81089     0.41139     0.38153
    1 imaginary frequencies ignored.
 Zero-point vibrational energy     422122.4 (Joules/Mol)
                                  100.88967 (Kcal/Mol)
 Warning -- explicit consideration of  17 degrees of freedom as
           vibrations may cause significant error
 Vibrational temperatures:     17.99    33.18    57.91    68.33   120.54
          (Kelvin)            128.35   134.01   147.63   236.11   245.42
                              299.25   441.75   472.27   643.73   701.37
                              713.10   744.03   928.38   956.31  1029.12
                             1148.29  1317.47  1357.58  1439.53  1455.64
                             1489.21  1496.19  1593.79  1647.05  1668.15
                             1679.58  1694.87  1709.67  1742.10  1761.40
                             1770.02  1783.06  1799.56  1816.90  1838.88
                             1878.22  1893.31  1896.65  1908.01  2028.77
                             2458.48  2584.48  3778.62  3801.98  3802.42
                             3823.88  3853.68  3866.87  3876.98  3910.19
                             3934.44  3945.06  3957.69  4011.71

 Zero-point correction=                           0.160778 (Hartree/Particle)
 Thermal correction to Energy=                    0.174580
 Thermal correction to Enthalpy=                  0.175524
 Thermal correction to Gibbs Free Energy=         0.116019
 Sum of electronic and zero-point Energies=              0.074821
 Sum of electronic and thermal Energies=                 0.088623
 Sum of electronic and thermal Enthalpies=               0.089567
 Sum of electronic and thermal Free Energies=            0.030062

                     E (Thermal)             CV                S
                      KCal/Mol        Cal/Mol-Kelvin    Cal/Mol-Kelvin
 Total                  109.551             44.727            125.239
 Electronic               0.000              0.000              0.000
 Translational            0.889              2.981             40.807
 Rotational               0.889              2.981             30.967
 Vibrational            107.773             38.766             53.466
 Vibration     1          0.593              1.987              7.567
 Vibration     2          0.593              1.985              6.352
 Vibration     3          0.594              1.981              5.247
 Vibration     4          0.595              1.979              4.919
 Vibration     5          0.601              1.960              3.800
 Vibration     6          0.602              1.957              3.677
 Vibration     7          0.602              1.954              3.593
 Vibration     8          0.605              1.947              3.404
 Vibration     9          0.623              1.887              2.502
 Vibration    10          0.626              1.879              2.429
 Vibration    11          0.641              1.828              2.061
 Vibration    12          0.697              1.660              1.378
 Vibration    13          0.711              1.619              1.269
 Vibration    14          0.807              1.367              0.804
 Vibration    15          0.843              1.278              0.690
 Vibration    16          0.851              1.260              0.669
 Vibration    17          0.872              1.212              0.617

 Normal termination of Gaussian 09 at Tue Feb 16 09:45:57 2021.
