 Gaussian 09, Revision D.01,
 Gaussian 09:  ES64L-G09RevD.01 24-Apr-2013

 ----------------------------------------------------------------------
 #P pm6 scf=qc opt(calcall, ts, noeigentest, cartesian,maxcycle=100) No
 Symm
 ----------------------------------------------------------------------

 ------------------------------
 Gaussian input prepared by ASE
 ------------------------------
 Symbolic Z-matrix:
 Charge =  0 Multiplicity = 2

 SCF Done:  E(UPM6) = -0.122958553217     a.u. after    8 cycles

 Alpha  occ. eigenvalues --   -1.18304  -1.18206  -1.12519  -1.08001  -1.04893
 Alpha  occ. eigenvalues --   -0.99607  -0.97696  -0.87526  -0.79414  -0.76218
 Alpha  occ. eigenvalues --   -0.74708  -0.67936  -0.63918  -0.63237  -0.62542
 Alpha  occ. eigenvalues --   -0.59583  -0.57893  -0.57676  -0.55917  -0.55073
 Alpha  occ. eigenvalues --   -0.53269  -0.52053  -0.50062  -0.50005  -0.49654
 Alpha  occ. eigenvalues --   -0.48918  -0.45473  -0.42685  -0.40497  -0.38358
 Alpha  occ. eigenvalues --   -0.37894  -0.34784
 Alpha virt. eigenvalues --   -0.01228   0.00339   0.01147   0.08684   0.08945
 Alpha virt. eigenvalues --    0.10282   0.11129   0.13000   0.13250   0.14821
 Alpha virt. eigenvalues --    0.15366   0.15838   0.16359   0.16672   0.16916

  Beta  occ. eigenvalues --   -1.18294  -1.18203  -1.12467  -1.07950  -1.04428
  Beta  occ. eigenvalues --   -0.99570  -0.97552  -0.87179  -0.79286  -0.75800
  Beta  occ. eigenvalues --   -0.74314  -0.67882  -0.63361  -0.63090  -0.62295
  Beta  occ. eigenvalues --   -0.59466  -0.57714  -0.57398  -0.55824  -0.55036
  Beta  occ. eigenvalues --   -0.52830  -0.51632  -0.49766  -0.49530  -0.49414
  Beta  occ. eigenvalues --   -0.48703  -0.45287  -0.42614  -0.40363  -0.38321
  Beta  occ. eigenvalues --   -0.37389
  Beta virt. eigenvalues --   -0.01212   0.00288   0.00825   0.01438   0.08729
  Beta virt. eigenvalues --    0.09130   0.10309   0.11481   0.13371   0.14099
  Beta virt. eigenvalues --    0.15430   0.15583   0.16008   0.16492   0.16949

 Mulliken charges and spin densities:
               1          2
     1  O   -0.455739  -0.000263
     2  C    0.408722   0.003112
     3  C   -0.468225  -0.047006
     4  C   -0.138161   1.023887
     5  C   -0.324495  -0.062490
     6  C   -0.050787   0.043322
     7  H    0.167561  -0.001276
     8  C    0.551341  -0.000990
     9  O   -0.474203   0.000433
    10  C   -0.623563   0.001272
    11  H    0.099623   0.000024
    12  H    0.197370   0.025262
    13  H    0.207792   0.024593
    14  H    0.291627  -0.001291
    15  H    0.139651  -0.032923
    16  H    0.186735   0.005048
    17  H    0.157069   0.017148
    18  H    0.218114  -0.000041
    19  H    0.196187  -0.000006
    20  H    0.193690  -0.000049
    21  O   -0.307610   0.003490
    22  O   -0.172699  -0.001257
 Sum of Mulliken charges =   0.00000   1.00000

 Dipole moment (field-independent basis, Debye):
    X=              1.2189    Y=              0.3552    Z=             -1.1211  Tot=              1.6937
 N-N= 3.885712208937D+02 E-N=-6.973330886851D+02  KE=-3.718049599022D+01
  Exact polarizability:  52.462  -0.262  67.926   3.484 -13.807  74.882
 Approx polarizability:  37.409  -1.552  54.134  -2.541 -11.901  47.153
 Leave Link  601 at Wed Feb 17 07:56:39 2021, MaxMem=    33554432 cpu:         0.0
 (Enter /cm/shared/apps/Gaussian09/g09/l701.exe)
 Compute integral second derivatives.
 ... and contract with generalized density number  0.
 Leave Link  701 at Wed Feb 17 07:56:40 2021, MaxMem=    33554432 cpu:         0.1
 (Enter /cm/shared/apps/Gaussian09/g09/l702.exe)
 L702 exits ... SP integral derivatives will be done elsewhere.

 Optimization completed.
    -- Stationary point found.

                          Input orientation:
 ---------------------------------------------------------------------
 Center     Atomic      Atomic             Coordinates (Angstroms)
 Number     Number       Type             X           Y           Z
 ---------------------------------------------------------------------
      1          8           0        1.134804   -0.881357    4.129577
      2          6           0        1.030153    0.075940    3.398065
      3          6           0        1.368711   -0.005536    1.926022
      4          6           0        0.606707    0.931441    1.080864
      5          6           0        0.837492    0.985031   -0.377957
      6          6           0        0.206666   -0.170589   -1.176668
      7          1           0        0.994093   -0.710886   -1.767493
      8          6           0       -0.886905    0.325993   -2.153182
      9          8           0       -0.904400    1.479539   -2.513446
     10          6           0       -1.848010   -0.707131   -2.635120
     11          1           0        0.693902    1.058833    3.764615
     12          1           0        2.466642    0.161363    1.808075
     13          1           0        1.232591   -1.053135    1.552773
     14          1           0       -1.148861   -0.826343    1.204667
     15          1           0       -0.119576    1.593975    1.519221
     16          1           0        0.454501    1.955324   -0.787015
     17          1           0        1.929956    1.008860   -0.586536
     18          1           0       -2.376023   -1.180691   -1.785608
     19          1           0       -2.607588   -0.275119   -3.302377
     20          1           0       -1.348592   -1.523293   -3.173447
     21          8           0       -1.467777   -0.957106    0.259818
     22          8           0       -0.248486   -1.285112   -0.384849
 ---------------------------------------------------------------------

 ******    1 imaginary frequencies (negative Signs) ******

                      1                      2                      3
                      A                      A                      A
 Frequencies --    -38.4040                16.7898                33.0003
 Red. masses --      3.7809                 6.2270                 2.2994
 Frc consts  --      0.0033                 0.0010                 0.0015
 IR Inten    --      0.9785                11.9498                11.0585

                      4                      5                      6
                      A                      A                      A
 Frequencies --     46.1819                63.8799                85.2525
 Red. masses --      2.6322                 1.6655                 1.8608
 Frc consts  --      0.0033                 0.0040                 0.0080
 IR Inten    --      4.3518                 2.2365                 1.3999

                      7                      8                      9
                      A                      A                      A
 Frequencies --    135.7721               171.0030               190.8957
 Red. masses --      4.2574                 4.3435                 4.1774
 Frc consts  --      0.0462                 0.0748                 0.0897
 IR Inten    --     16.0535                 2.7926                 3.7890

                     10                     11                     12
                      A                      A                      A
 Frequencies --    242.5267               258.0805               280.3171
 Red. masses --      3.0890                 3.6239                 2.0102
 Frc consts  --      0.1070                 0.1422                 0.0931
 IR Inten    --     13.9544                 0.3607                28.7764

                     13                     14                     15
                      A                      A                      A
 Frequencies --    306.7041               435.1221               449.9183
 Red. masses --      1.7553                 3.2193                 3.4646
 Frc consts  --      0.0973                 0.3591                 0.4132
 IR Inten    --     40.3167                 1.9408                 6.5962

                     16                     17                     18
                      A                      A                      A
 Frequencies --    484.2505               491.3650               541.0400
 Red. masses --      4.9546                 3.1810                 3.4927
 Frc consts  --      0.6845                 0.4525                 0.6024
 IR Inten    --     16.3832                22.1402                 4.9093

                     19                     20                     21
                      A                      A                      A
 Frequencies --    613.0917               727.3112               774.0195
 Red. masses --      1.6374                 2.8445                 1.8135
 Frc consts  --      0.3626                 0.8865                 0.6401
 IR Inten    --     87.2916                12.9842                 2.0729

                     22                     23                     24
                      A                      A                      A
 Frequencies --    808.9980               905.5985               937.1809
 Red. masses --      2.8602                 1.8397                 2.9632
 Frc consts  --      1.1029                 0.8889                 1.5334
 IR Inten    --      7.6889                21.9023                 8.7298

                     25                     26                     27
                      A                      A                      A
 Frequencies --    969.6872               997.8360              1018.0749
 Red. masses --      1.5698                 2.0897                 1.6953
 Frc consts  --      0.8697                 1.2259                 1.0353
 IR Inten    --      3.9082                40.3433                53.2387

                     28                     29                     30
                      A                      A                      A
 Frequencies --   1036.7564              1078.2549              1101.4714
 Red. masses --      2.2765                 2.3647                 1.4578
 Frc consts  --      1.4417                 1.6198                 1.0421
 IR Inten    --     25.9234                 9.9185                15.3583

                     31                     32                     33
                      A                      A                      A
 Frequencies --   1108.1701              1136.0747              1164.1837
 Red. masses --      1.4947                 1.9459                 1.5246
 Frc consts  --      1.0815                 1.4797                 1.2175
 IR Inten    --      2.9861                72.5393                14.4659

                     34                     35                     36
                      A                      A                      A
 Frequencies --   1179.1642              1198.2939              1198.8818
 Red. masses --      1.1490                 1.2935                 1.1877
 Frc consts  --      0.9413                 1.0943                 1.0058
 IR Inten    --     51.6553                20.0493                80.9088

                     37                     38                     39
                      A                      A                      A
 Frequencies --   1213.5480              1223.9168              1238.1292
 Red. masses --      1.8004                 1.0707                 1.4737
 Frc consts  --      1.5622                 0.9450                 1.3310
 IR Inten    --     30.1539                72.2844                90.7060

                     40                     41                     42
                      A                      A                      A
 Frequencies --   1243.5719              1253.5921              1275.3992
 Red. masses --      1.3237                 2.3367                 1.2858
 Frc consts  --      1.2061                 2.1635                 1.2323
 IR Inten    --      1.9800               146.9697                26.9541

                     43                     44                     45
                      A                      A                      A
 Frequencies --   1286.1515              1320.6855              1328.4724
 Red. masses --      1.2932                 1.2437                 1.6777
 Frc consts  --      1.2604                 1.2781                 1.7445
 IR Inten    --     17.5580               176.6888                 8.9575

                     46                     47                     48
                      A                      A                      A
 Frequencies --   1388.3537              1401.4484              1792.9350
 Red. masses --      1.1281                 5.9912                11.4386
 Frc consts  --      1.2811                 6.9330                21.6647
 IR Inten    --     30.7330               110.9314               298.7854

                     49                     50                     51
                      A                      A                      A
 Frequencies --   1807.7637              2631.9533              2635.1235
 Red. masses --     11.9226                 1.0719                 1.0655
 Frc consts  --     22.9565                 4.3747                 4.3591
 IR Inten    --    304.2363                91.4468               153.9213

                     52                     53                     54
                      A                      A                      A
 Frequencies --   2636.0427              2646.6221              2667.3104
 Red. masses --      1.0780                 1.0720                 1.0831
 Frc consts  --      4.4136                 4.4243                 4.5401
 IR Inten    --     67.6015                17.0459                89.7906

                     55                     56                     57
                      A                      A                      A
 Frequencies --   2670.3500              2693.2384              2720.5362
 Red. masses --      1.0688                 1.0887                 1.0504
 Frc consts  --      4.4905                 4.6528                 4.5803
 IR Inten    --    123.3461               118.6661                41.6278

                     58                     59                     60
                      A                      A                      A
 Frequencies --   2722.0576              2758.6982              2782.5122
 Red. masses --      1.0475                 1.0760                 1.0319
 Frc consts  --      4.5730                 4.8247                 4.7074
 IR Inten    --     69.1968                76.3443                85.6853

 - Thermochemistry -
 -------------------
 Temperature   298.150 Kelvin.  Pressure   1.00000 Atm.
 Atom     1 has atomic number  8 and mass  15.99491

 Molecular mass:   159.06573 amu.
 Principal axes and moments of inertia in atomic units:
                           1         2         3
     Eigenvalues --   743.461353382.073063799.57377
           X            0.37176   0.52836   0.76330
           Y           -0.07628   0.83684  -0.54211
           Z            0.92519  -0.14331  -0.35141
 This molecule is an asymmetric top.
 Rotational symmetry number  1.
 Warning -- assumption of classical behavior for rotation
           may cause significant error
 Rotational temperatures (Kelvin)      0.11650     0.02561     0.02280
 Rotational constants (GHZ):           2.42748     0.53362     0.47499
    1 imaginary frequencies ignored.
 Zero-point vibrational energy     415843.2 (Joules/Mol)
                                   99.38892 (Kcal/Mol)
 Warning -- explicit consideration of  18 degrees of freedom as
           vibrations may cause significant error
 Vibrational temperatures:     24.16    47.48    66.45    91.91   122.66
          (Kelvin)            195.35   246.03   274.66   348.94   371.32
                              403.31   441.28   626.04   647.33   696.73
                              706.96   778.43   882.10  1046.44  1113.64
                             1163.97  1302.95  1348.39  1395.16  1435.66
                             1464.78  1491.66  1551.37  1584.77  1594.41
                             1634.56  1675.00  1696.55  1724.08  1724.92
                             1746.02  1760.94  1781.39  1789.22  1803.64
                             1835.01  1850.48  1900.17  1911.37  1997.53
                             2016.37  2579.63  2600.97  3786.79  3791.35
                             3792.67  3807.89  3837.66  3842.03  3874.96
                             3914.24  3916.43  3969.15  4003.41

 Zero-point correction=                           0.158386 (Hartree/Particle)
 Thermal correction to Energy=                    0.171258
 Thermal correction to Enthalpy=                  0.172203
 Thermal correction to Gibbs Free Energy=         0.115767
 Sum of electronic and zero-point Energies=              0.035428
 Sum of electronic and thermal Energies=                 0.048300
 Sum of electronic and thermal Enthalpies=               0.049244
 Sum of electronic and thermal Free Energies=           -0.007191

                     E (Thermal)             CV                S
                      KCal/Mol        Cal/Mol-Kelvin    Cal/Mol-Kelvin
 Total                  107.466             44.138            118.778
 Electronic               0.000              0.000              1.377
 Translational            0.889              2.981             41.102
 Rotational               0.889              2.981             30.636
 Vibrational            105.689             38.177             45.663
 Vibration     1          0.593              1.986              6.982
 Vibration     2          0.594              1.983              5.640
 Vibration     3          0.595              1.979              4.975
 Vibration     4          0.597              1.972              4.334
 Vibration     5          0.601              1.959              3.766
 Vibration     6          0.614              1.918              2.863
 Vibration     7          0.626              1.878              2.424
 Vibration     8          0.634              1.852              2.219
 Vibration     9          0.659              1.775              1.784
 Vibration    10          0.667              1.749              1.675
 Vibration    11          0.680              1.710              1.532
 Vibration    12          0.697              1.661              1.380
 Vibration    13          0.796              1.394              0.842
 Vibration    14          0.809              1.361              0.796
 Vibration    15          0.840              1.285              0.699
 Vibration    16          0.847              1.269              0.680
 Vibration    17          0.896              1.159              0.563
 Vibration    18          0.972              1.004              0.428

 Normal termination of Gaussian 09 at Wed Feb 17 07:56:40 2021.
