 Gaussian 09, Revision D.01,
 Gaussian 09:  ES64L-G09RevD.01 24-Apr-2013

 ----------------------------------------------------------------------
 #P b3lyp/3-21G scf=qc opt(calcall, ts, noeigentest, cartesian,maxcycle
 =100)
 ----------------------------------------------------------------------

 ------------------------------
 Gaussian input prepared by ASE
 ------------------------------
 Symbolic Z-matrix:
 Charge =  0 Multiplicity = 2

 SCF Done:  E(UB3LYP) =  -191.301404310     a.u. after    7 cycles

 The electronic state is 2-A.
 Alpha  occ. eigenvalues --  -19.06024 -10.18017 -10.15129 -10.13024  -1.04207
 Alpha  occ. eigenvalues --   -0.81528  -0.69856  -0.58113  -0.51917  -0.46334
 Alpha  occ. eigenvalues --   -0.44407  -0.37998  -0.36168  -0.34039  -0.22810
 Alpha  occ. eigenvalues --   -0.16675
 Alpha virt. eigenvalues --    0.03346   0.08134   0.10375   0.14653   0.18324
 Alpha virt. eigenvalues --    0.19864   0.23071   0.34766   0.46140   0.62899
 Alpha virt. eigenvalues --    0.70250   0.72161   0.74829   0.75497   0.79902

  Beta  occ. eigenvalues --  -19.05861 -10.17808 -10.14429 -10.12377  -1.03778
  Beta  occ. eigenvalues --   -0.79703  -0.68488  -0.57168  -0.50533  -0.45660
  Beta  occ. eigenvalues --   -0.43746  -0.36778  -0.35463  -0.32672  -0.21297
  Beta virt. eigenvalues --   -0.06209   0.05246   0.08791   0.11115   0.15401
  Beta virt. eigenvalues --    0.19024   0.20672   0.24091   0.35657   0.47052
  Beta virt. eigenvalues --    0.63420   0.70853   0.73965   0.76281   0.77949

 Mulliken charges and spin densities:
               1          2
     1  C   -0.515300   0.502138
     2  C   -0.213326   0.427172
     3  H    0.205858  -0.001408
     4  H    0.225754  -0.025702
     5  H    0.257783  -0.090935
     6  C    0.014084   0.102612
     7  H    0.212448   0.025480
     8  O   -0.536854   0.050334
     9  H    0.349553   0.010309
 Sum of Mulliken charges =   0.00000   1.00000

 Dipole moment (field-independent basis, Debye):
    X=              1.2496    Y=             -0.8665    Z=              0.7468  Tot=              1.6941
 Quadrupole moment (field-independent basis, Debye-Ang):
   XX=            -25.4678   YY=            -21.3608   ZZ=            -26.2389
   XY=              1.9900   XZ=              0.4257   YZ=             -0.4120

  Exact polarizability:  60.100  -1.385  31.484  -0.674   0.700  16.680
 Approx polarizability:  98.888  -7.650  45.169  -3.624   1.962  22.012

 Optimization completed.
    -- Stationary point found.

                         Standard orientation:
 ---------------------------------------------------------------------
 Center     Atomic      Atomic             Coordinates (Angstroms)
 Number     Number       Type             X           Y           Z
 ---------------------------------------------------------------------
      1          6           0        1.939152    0.007682    0.078769
      2          6           0        0.541417   -0.213816   -0.210851
      3          1           0        2.271727    0.734097    0.819510
      4          1           0        2.677253   -0.369586   -0.622415
      5          1           0        1.261614   -1.093479    0.449906
      6          6           0       -0.608874    0.437644   -0.073636
      7          1           0       -0.694824    1.519204   -0.148035
      8          8           0       -1.872513   -0.132037    0.079498
      9          1           0       -1.765828   -1.123001    0.099358
 ---------------------------------------------------------------------

 ******    1 imaginary frequencies (negative Signs) ******

                      1                      2                      3
                      A                      A                      A
 Frequencies --  -2054.5562               177.4508               253.3471
 Red. masses --      1.1267                 3.1464                 3.0536
 Frc consts  --      2.8021                 0.0584                 0.1155
 IR Inten    --    128.1742                 9.6881                 2.2356

                      4                      5                      6
                      A                      A                      A
 Frequencies --    340.8146               533.6579               553.5866
 Red. masses --      1.4145                 1.5592                 2.6505
 Frc consts  --      0.0968                 0.2616                 0.4786
 IR Inten    --      8.8031               114.6188                29.9236

                      7                      8                      9
                      A                      A                      A
 Frequencies --    862.1862               890.1614               975.3933
 Red. masses --      1.3676                 1.2989                 2.6981
 Frc consts  --      0.5990                 0.6064                 1.5124
 IR Inten    --     29.8897               112.6993               104.2329

                     10                     11                     12
                      A                      A                      A
 Frequencies --   1064.3241              1103.3042              1148.9209
 Red. masses --      1.3895                 1.2623                 2.6374
 Frc consts  --      0.9274                 0.9053                 2.0512
 IR Inten    --      5.5606                60.9769               135.7211

                     13                     14                     15
                      A                      A                      A
 Frequencies --   1293.9410              1391.0943              1498.0925
 Red. masses --      1.3877                 1.2327                 1.1282
 Frc consts  --      1.3689                 1.4055                 1.4917
 IR Inten    --      3.2139                39.1896                 0.1863

                     16                     17                     18
                      A                      A                      A
 Frequencies --   1697.1655              2031.2043              3099.2197
 Red. masses --      5.9033                 1.0862                 1.0513
 Frc consts  --     10.0182                 2.6403                 5.9493
 IR Inten    --     56.6782                13.5688                17.0244

                     19                     20                     21
                      A                      A                      A
 Frequencies --   3152.1029              3214.1869              3461.1544
 Red. masses --      1.0877                 1.1130                 1.0642
 Frc consts  --      6.3676                 6.7746                 7.5115
 IR Inten    --     14.2305                10.3421                 3.1099

 - Thermochemistry -
 -------------------
 Temperature   298.150 Kelvin.  Pressure   1.00000 Atm.
 Atom     1 has atomic number  6 and mass  12.00000

 Molecular mass:    57.03404 amu.
 Principal axes and moments of inertia in atomic units:
                           1         2         3
     Eigenvalues --    38.11826 459.45808 482.81328
           X            0.99998   0.00173   0.00581
           Y           -0.00173   1.00000   0.00013
           Z           -0.00580  -0.00014   0.99998
 This molecule is an asymmetric top.
 Rotational symmetry number  1.
 Rotational temperatures (Kelvin)      2.27224     0.18851     0.17939
 Rotational constants (GHZ):          47.34584     3.92798     3.73797
    1 imaginary frequencies ignored.
 Zero-point vibrational energy     171911.2 (Joules/Mol)
                                   41.08776 (Kcal/Mol)
 Warning -- explicit consideration of   5 degrees of freedom as
           vibrations may cause significant error
 Vibrational temperatures:    255.31   364.51   490.36   767.81   796.49
          (Kelvin)           1240.49  1280.74  1403.37  1531.32  1587.41
                             1653.04  1861.69  2001.47  2155.42  2441.84
                             2922.45  4459.08  4535.17  4624.49  4979.82

 Zero-point correction=                           0.065478 (Hartree/Particle)
 Thermal correction to Energy=                    0.070408
 Thermal correction to Enthalpy=                  0.071352
 Thermal correction to Gibbs Free Energy=         0.038036
 Sum of electronic and zero-point Energies=           -191.235927
 Sum of electronic and thermal Energies=              -191.230997
 Sum of electronic and thermal Enthalpies=            -191.230053
 Sum of electronic and thermal Free Energies=         -191.263369

                     E (Thermal)             CV                S
                      KCal/Mol        Cal/Mol-Kelvin    Cal/Mol-Kelvin
 Total                   44.181             16.176             70.120
 Electronic               0.000              0.000              1.377
 Translational            0.889              2.981             38.044
 Rotational               0.889              2.981             23.651
 Vibrational             42.404             10.214              7.047
 Vibration     1          0.628              1.870              2.355
 Vibration     2          0.665              1.757              1.707
 Vibration     3          0.720              1.594              1.208
 Vibration     4          0.889              1.176              0.579
 Vibration     5          0.909              1.132              0.537

 Normal termination of Gaussian 09 at Wed Jan  6 20:37:21 2021.
