 Gaussian 09, Revision D.01,
 Gaussian 09:  ES64L-G09RevD.01 24-Apr-2013

 ----------------------------------------------------------------------
 #P upm6 scf=qc opt(calcall, ts, noeigentest, cartesian,maxcycle=100) N
 oSymm, guess=mix
 ----------------------------------------------------------------------

 ------------------------------
 Gaussian input prepared by ASE
 ------------------------------
 Symbolic Z-matrix:
 Charge =  0 Multiplicity = 1

 SCF Done:  E(UPM6) = -0.527881111652E-01 a.u. after   13 cycles
 SCF Done:  E(UPM6) = -0.546521227100E-01 a.u. after    5 cycles
 SCF Done:  E(UPM6) = -0.555831906781E-01 a.u. after    4 cycles
 SCF Done:  E(UPM6) = -0.560439147040E-01 a.u. after    4 cycles
 SCF Done:  E(UPM6) = -0.563495959333E-01 a.u. after    5 cycles
 SCF Done:  E(UPM6) = -0.562469766260E-01 a.u. after    4 cycles
 SCF Done:  E(UPM6) = -0.561577575337E-01 a.u. after    4 cycles
 SCF Done:  E(UPM6) = -0.561107879246E-01 a.u. after    4 cycles
 SCF Done:  E(UPM6) = -0.561249501276E-01 a.u. after    4 cycles
 SCF Done:  E(UPM6) = -0.561350214744E-01 a.u. after    4 cycles
 SCF Done:  E(UPM6) = -0.561348448551E-01 a.u. after    3 cycles
 SCF Done:  E(UPM6) = -0.561349262588E-01 a.u. after    3 cycles
 Optimization completed.
    -- Stationary point found.

                          Input orientation:
 ---------------------------------------------------------------------
 Center     Atomic      Atomic             Coordinates (Angstroms)
 Number     Number       Type             X           Y           Z
 ---------------------------------------------------------------------
      1          6           0        1.040378    1.305511    0.582926
      2          6           0       -0.357386    1.695271    0.088448
      3          6           0       -0.925726    0.914114   -1.111832
      4          6           0       -0.131262   -0.291617   -1.580941
      5          6           0        0.207837   -0.860694    1.520320
      6          6           0        1.033791    0.329904    1.774131
      7          1           0        1.648666    0.883247   -0.249000
      8          1           0        1.585816    2.221204    0.888672
      9          1           0       -1.078416    1.625601    0.927649
     10          1           0       -0.338313    2.770690   -0.188383
     11          1           0       -1.971040    0.628042   -0.885787
     12          1           0       -0.992824    1.602798   -1.984039
     13          6           0       -0.851519   -1.606857   -1.606386
     14          1           0       -0.852038   -0.887163    1.397824
     15          1           0        2.082841    0.039758    2.009732
     16          1           0        0.656251    0.847351    2.685349
     17          1           0       -1.940422   -1.525761   -1.653636
     18          1           0       -0.603597   -2.206239   -0.708508
     19          1           0       -0.519236   -2.219825   -2.458705
     20          8           0        0.958527   -2.029558    1.397778
     21          8           0        0.332382   -3.041353    1.117491
     22          8           0        1.015292   -0.194425   -1.963105
 ---------------------------------------------------------------------

 Alpha  occ. eigenvalues --   -1.19893  -1.16553  -1.07702  -1.03277  -0.99453
 Alpha  occ. eigenvalues --   -0.95501  -0.87694  -0.82175  -0.75736  -0.69976
 Alpha  occ. eigenvalues --   -0.67923  -0.62411  -0.60166  -0.59182  -0.58223
 Alpha  occ. eigenvalues --   -0.57340  -0.55237  -0.54285  -0.52173  -0.50442
 Alpha  occ. eigenvalues --   -0.49547  -0.48879  -0.47275  -0.45273  -0.44648
 Alpha  occ. eigenvalues --   -0.43562  -0.37089  -0.35978  -0.35137
 Alpha virt. eigenvalues --   -0.00800   0.02635   0.03981   0.10742   0.12307
 Alpha virt. eigenvalues --    0.12996   0.13647   0.14304   0.14868   0.15295
 Alpha virt. eigenvalues --    0.16646   0.18120   0.18322   0.19398   0.19697

  Beta  occ. eigenvalues --   -1.25229  -1.16550  -1.10532  -1.06048  -1.00257
  Beta  occ. eigenvalues --   -0.96059  -0.88099  -0.82284  -0.75841  -0.70662
  Beta  occ. eigenvalues --   -0.69422  -0.65022  -0.62513  -0.59827  -0.59551
  Beta  occ. eigenvalues --   -0.57833  -0.55564  -0.54401  -0.52226  -0.50629
  Beta  occ. eigenvalues --   -0.49445  -0.48881  -0.47260  -0.45204  -0.44609
  Beta  occ. eigenvalues --   -0.43530  -0.39883  -0.38890  -0.37023
  Beta virt. eigenvalues --    0.00721   0.01748   0.02696   0.10746   0.12301
  Beta virt. eigenvalues --    0.13008   0.13799   0.14107   0.15020   0.15546
  Beta virt. eigenvalues --    0.16650   0.18265   0.18351   0.19511   0.19818

 Mulliken charges and spin densities:
               1          2
     1  C   -0.265374   0.034726
     2  C   -0.204328  -0.001724
     3  C   -0.452289   0.000182
     4  C    0.617924  -0.000399
     5  C   -0.156808   0.913634
     6  C   -0.275884  -0.043978
     7  H    0.178429  -0.001356
     8  H    0.137188  -0.000536
     9  H    0.130449   0.000255
    10  H    0.131890   0.000248
    11  H    0.161850  -0.000021
    12  H    0.176041   0.000064
    13  C   -0.656717  -0.001379
    14  H    0.166941  -0.025396
    15  H    0.156138   0.003156
    16  H    0.157794   0.019127
    17  H    0.181521   0.000052
    18  H    0.217402   0.000712
    19  H    0.200787   0.000086
    20  O    0.224699  -0.354236
    21  O   -0.320654  -0.543864
    22  O   -0.506999   0.000646
 Sum of Mulliken charges =   0.00000   0.00000

 Dipole moment (field-independent basis, Debye):
    X=             -2.5100    Y=              2.8591    Z=              1.5288  Tot=              4.1002
 N-N= 3.461044034713D+02 E-N=-6.186722101132D+02  KE=-3.488883704833D+01
  Exact polarizability:  57.796   3.930  90.403  -1.005   8.232  44.273
 Approx polarizability:  45.378   2.800  58.883  -3.122   5.941  28.942
 Leave Link  601 at Mon Feb 15 21:21:19 2021, MaxMem=    33554432 cpu:         0.0
 (Enter /cm/shared/apps/Gaussian09/g09/l716.exe)
 Dipole        =-9.87516120D-01 1.12484091D+00 6.01479768D-01
 Polarizability= 5.77955424D+01 3.92968081D+00 9.04025423D+01
                -1.00516214D+00 8.23247009D+00 4.42727240D+01
 HyperPolar    =-7.34741274D+01 7.33988749D+00 8.30969685D+00
                -5.14335883D+02 2.11190669D+01 1.28020124D+00

 ******    1 imaginary frequencies (negative Signs) ******

                      1                      2                      3
                      A                      A                      A
 Frequencies --    -97.0581                41.6332                47.1628
 Red. masses --      1.9228                 2.1433                 5.0549
 Frc consts  --      0.0107                 0.0022                 0.0066
 IR Inten    --      0.7744                 1.1316                 0.9494

                      4                      5                      6
                      A                      A                      A
 Frequencies --     72.4705                99.1177               137.7755
 Red. masses --      2.6469                 2.2559                 2.5502
 Frc consts  --      0.0082                 0.0131                 0.0285
 IR Inten    --      4.0673                 4.4769                 3.6433

                      7                      8                      9
                      A                      A                      A
 Frequencies --    159.5344               226.7729               266.5416
 Red. masses --      6.0241                 4.8681                 4.0210
 Frc consts  --      0.0903                 0.1475                 0.1683
 IR Inten    --      2.3964                 2.1357                 1.1075

                     10                     11                     12
                      A                      A                      A
 Frequencies --    287.3215               356.4256               397.2713
 Red. masses --      2.3780                 2.5734                 3.0381
 Frc consts  --      0.1157                 0.1926                 0.2825
 IR Inten    --      1.5524                 1.2372                 1.0233

                     13                     14                     15
                      A                      A                      A
 Frequencies --    464.7141               500.7653               564.7988
 Red. masses --      2.8133                 2.5375                 4.4972
 Frc consts  --      0.3580                 0.3749                 0.8452
 IR Inten    --      9.7388                10.2045                 6.4935

                     16                     17                     18
                      A                      A                      A
 Frequencies --    621.8725               741.5948               765.4983
 Red. masses --      2.9761                 1.4344                 1.3459
 Frc consts  --      0.6781                 0.4648                 0.4647
 IR Inten    --     10.3487                54.4188                59.7053

                     19                     20                     21
                      A                      A                      A
 Frequencies --    820.0084               883.8900               911.8497
 Red. masses --      1.6715                 2.6043                 1.8993
 Frc consts  --      0.6622                 1.1988                 0.9304
 IR Inten    --     20.7036                 3.6662                 1.5012

                     22                     23                     24
                      A                      A                      A
 Frequencies --    946.5372               984.6516              1022.5220
 Red. masses --      1.7142                 1.9156                 1.7134
 Frc consts  --      0.9049                 1.0942                 1.0555
 IR Inten    --     28.9712                28.5125                26.7105

                     25                     26                     27
                      A                      A                      A
 Frequencies --   1036.8269              1064.2138              1079.9646
 Red. masses --      1.8357                 2.9010                 2.0446
 Frc consts  --      1.1627                 1.9358                 1.4050
 IR Inten    --     60.9478                71.3969                18.3579

                     28                     29                     30
                      A                      A                      A
 Frequencies --   1107.3118              1134.0685              1154.6922
 Red. masses --      2.0690                 1.2219                 1.4636
 Frc consts  --      1.4947                 0.9259                 1.1497
 IR Inten    --     27.2335                26.4803                 3.5361

                     31                     32                     33
                      A                      A                      A
 Frequencies --   1167.2158              1182.4292              1196.6928
 Red. masses --      1.8510                 1.3132                 1.4021
 Frc consts  --      1.4858                 1.0817                 1.1830
 IR Inten    --      3.5052                14.2383                31.0764

                     34                     35                     36
                      A                      A                      A
 Frequencies --   1203.1578              1217.2074              1219.6039
 Red. masses --      1.1011                 1.7051                 1.1854
 Frc consts  --      0.9391                 1.4885                 1.0388
 IR Inten    --     63.3758                59.4734                31.0294

                     37                     38                     39
                      A                      A                      A
 Frequencies --   1247.3753              1252.4908              1260.9318
 Red. masses --      1.2809                 1.1408                 1.6080
 Frc consts  --      1.1743                 1.0544                 1.5063
 IR Inten    --     56.6708                 7.6063                86.2186

                     40                     41                     42
                      A                      A                      A
 Frequencies --   1266.1310              1269.8030              1280.1833
 Red. masses --      1.1439                 1.4044                 1.1467
 Frc consts  --      1.0805                 1.3342                 1.1072
 IR Inten    --     23.0634                19.9779                43.3939

                     43                     44                     45
                      A                      A                      A
 Frequencies --   1289.2696              1315.6355              1323.0918
 Red. masses --      1.8554                 1.2902                 1.2527
 Frc consts  --      1.8171                 1.3157                 1.2920
 IR Inten    --     78.8793                54.4220               140.7468

                     46                     47                     48
                      A                      A                      A
 Frequencies --   1351.2633              1365.4247              1796.2537
 Red. masses --      1.5807                 2.9157                10.8272
 Frc consts  --      1.7005                 3.2028                20.5827
 IR Inten    --     70.8341                18.6697               314.4772

                     49                     50                     51
                      A                      A                      A
 Frequencies --   2638.3795              2648.9056              2651.4459
 Red. masses --      1.0791                 1.0840                 1.0783
 Frc consts  --      4.4256                 4.4815                 4.4664
 IR Inten    --     25.6045               181.7926                 4.0922

                     52                     53                     54
                      A                      A                      A
 Frequencies --   2662.0472              2675.3101              2698.0172
 Red. masses --      1.0849                 1.0896                 1.0891
 Frc consts  --      4.5297                 4.5948                 4.6708
 IR Inten    --     79.4479                96.9013                85.3797

                     55                     56                     57
                      A                      A                      A
 Frequencies --   2727.6888              2730.8163              2735.0280
 Red. masses --      1.0489                 1.0474                 1.0546
 Frc consts  --      4.5981                 4.6020                 4.6480
 IR Inten    --     38.8977                53.2155                17.3065

                     58                     59                     60
                      A                      A                      A
 Frequencies --   2739.6112              2755.2010              2784.2603
 Red. masses --      1.0472                 1.0748                 1.0336
 Frc consts  --      4.6309                 4.8071                 4.7208
 IR Inten    --     73.2221                84.2729                58.2187

 - Thermochemistry -
 -------------------
 Temperature   298.150 Kelvin.  Pressure   1.00000 Atm.
 Atom     1 has atomic number  6 and mass  12.00000

 Molecular mass:   144.07864 amu.
 Principal axes and moments of inertia in atomic units:
                           1         2         3
     Eigenvalues --  1184.902331589.585272280.32940
           X           -0.18936   0.25807   0.94739
           Y            0.75635   0.65362  -0.02687
           Z           -0.62616   0.71146  -0.31896
 This molecule is an asymmetric top.
 Rotational symmetry number  1.
 Warning -- assumption of classical behavior for rotation
           may cause significant error
 Rotational temperatures (Kelvin)      0.07310     0.05449     0.03798
 Rotational constants (GHZ):           1.52311     1.13535     0.79144
    1 imaginary frequencies ignored.
 Zero-point vibrational energy     439918.8 (Joules/Mol)
                                  105.14311 (Kcal/Mol)
 Warning -- explicit consideration of  14 degrees of freedom as
           vibrations may cause significant error
 Vibrational temperatures:     59.90    67.86   104.27   142.61   198.23
          (Kelvin)            229.53   326.28   383.49   413.39   512.82
                              571.58   668.62   720.49   812.62   894.73
                             1066.99  1101.38  1179.81  1271.72  1311.95
                             1361.85  1416.69  1471.18  1491.76  1531.16
                             1553.83  1593.17  1631.67  1661.34  1679.36
                             1701.25  1721.77  1731.07  1751.29  1754.74
                             1794.69  1802.05  1814.20  1821.68  1826.96
                             1841.90  1854.97  1892.90  1903.63  1944.16
                             1964.54  2584.41  3796.03  3811.18  3814.83
                             3830.09  3849.17  3881.84  3924.53  3929.03
                             3935.09  3941.68  3964.11  4005.92

 Zero-point correction=                           0.167556 (Hartree/Particle)
 Thermal correction to Energy=                    0.178660
 Thermal correction to Enthalpy=                  0.179604
 Thermal correction to Gibbs Free Energy=         0.129529
 Sum of electronic and zero-point Energies=              0.111421
 Sum of electronic and thermal Energies=                 0.122525
 Sum of electronic and thermal Enthalpies=               0.123469
 Sum of electronic and thermal Free Energies=            0.073394

                     E (Thermal)             CV                S
                      KCal/Mol        Cal/Mol-Kelvin    Cal/Mol-Kelvin
 Total                  112.111             39.522            105.393
 Electronic               0.000              0.000              0.000
 Translational            0.889              2.981             40.807
 Rotational               0.889              2.981             29.842
 Vibrational            110.333             33.560             34.745
 Vibration     1          0.594              1.981              5.180
 Vibration     2          0.595              1.979              4.933
 Vibration     3          0.599              1.967              4.085
 Vibration     4          0.604              1.950              3.472
 Vibration     5          0.614              1.916              2.835
 Vibration     6          0.621              1.892              2.555
 Vibration     7          0.650              1.800              1.904
 Vibration     8          0.672              1.734              1.619
 Vibration     9          0.684              1.697              1.490
 Vibration    10          0.732              1.562              1.138
 Vibration    11          0.764              1.476              0.973
 Vibration    12          0.822              1.328              0.753
 Vibration    13          0.856              1.248              0.656
 Vibration    14          0.921              1.107              0.514

 Normal termination of Gaussian 09 at Mon Feb 15 21:21:19 2021.
