 Gaussian 09, Revision D.01,
 Gaussian 09:  ES64L-G09RevD.01 24-Apr-2013

 ----------------------------------------------------------------------
 #P b3lyp/3-21G scf=qc opt(calcall, ts, noeigentest, cartesian,maxcycle
 =100) NoSymm
 ----------------------------------------------------------------------

 ------------------------------
 Gaussian input prepared by ASE
 ------------------------------
 Symbolic Z-matrix:
 Charge =  0 Multiplicity = 2

 SCF Done:  E(UB3LYP) =  -191.327542812     a.u. after    7 cycles
 SCF Done:  E(UB3LYP) =  -191.329552178     a.u. after   13 cycles
 SCF Done:  E(UB3LYP) =  -191.330551131     a.u. after    5 cycles
 SCF Done:  E(UB3LYP) =  -191.330543541     a.u. after    5 cycles
 SCF Done:  E(UB3LYP) =  -191.330583224     a.u. after    4 cycles
 SCF Done:  E(UB3LYP) =  -191.330585636     a.u. after    5 cycles
 SCF Done:  E(UB3LYP) =  -191.330625077     a.u. after    4 cycles
 SCF Done:  E(UB3LYP) =  -191.330654297     a.u. after    5 cycles
 SCF Done:  E(UB3LYP) =  -191.330737764     a.u. after    5 cycles
 SCF Done:  E(UB3LYP) =  -191.330816802     a.u. after    5 cycles
 SCF Done:  E(UB3LYP) =  -191.331291621     a.u. after    5 cycles
 SCF Done:  E(UB3LYP) =  -191.331610382     a.u. after    6 cycles
 SCF Done:  E(UB3LYP) =  -191.331926423     a.u. after    6 cycles
 SCF Done:  E(UB3LYP) =  -191.332222662     a.u. after    6 cycles
 SCF Done:  E(UB3LYP) =  -191.332457425     a.u. after    6 cycles
 SCF Done:  E(UB3LYP) =  -191.332632781     a.u. after    6 cycles
 SCF Done:  E(UB3LYP) =  -191.332723168     a.u. after    5 cycles
 SCF Done:  E(UB3LYP) =  -191.332753101     a.u. after    4 cycles
 SCF Done:  E(UB3LYP) =  -191.332757582     a.u. after    4 cycles
 SCF Done:  E(UB3LYP) =  -191.332757750     a.u. after    3 cycles
 Optimization completed.
    -- Stationary point found.

                          Input orientation:
 ---------------------------------------------------------------------
 Center     Atomic      Atomic             Coordinates (Angstroms)
 Number     Number       Type             X           Y           Z
 ---------------------------------------------------------------------
      1          6           0        0.783964   -0.793311   -0.542546
      2          6           0       -0.149472    0.333326   -0.596771
      3          1           0        1.747343   -0.524609   -0.990703
      4          1           0        0.385787   -1.666199   -1.072534
      5          1           0        0.934387   -1.035925    0.513639
      6          6           0       -0.923235    1.261890   -0.607088
      7          1           0       -1.587997    2.088986   -0.639643
      8          8           0       -0.123737    0.297387    2.099748
      9          1           0       -1.067042    0.038455    1.835898
 ---------------------------------------------------------------------

 Alpha  occ. eigenvalues --  -19.06020 -10.13739 -10.13635 -10.12059  -0.96857
 Alpha  occ. eigenvalues --   -0.78287  -0.70933  -0.53384  -0.45580  -0.43369
 Alpha  occ. eigenvalues --   -0.43141  -0.42020  -0.36073  -0.28584  -0.27523
 Alpha  occ. eigenvalues --   -0.26951
 Alpha virt. eigenvalues --    0.05720   0.05944   0.10847   0.13672   0.15717
 Alpha virt. eigenvalues --    0.20128   0.22147   0.25066   0.48870   0.67915
 Alpha virt. eigenvalues --    0.70121   0.70776   0.78689   0.79020   0.89404

  Beta  occ. eigenvalues --  -19.03714 -10.13725 -10.13625 -10.11983  -0.90185
  Beta  occ. eigenvalues --   -0.78164  -0.70821  -0.53312  -0.45541  -0.43160
  Beta  occ. eigenvalues --   -0.43071  -0.39433  -0.27558  -0.27415  -0.25825
  Beta virt. eigenvalues --   -0.10678   0.05804   0.06195   0.11821   0.13757
  Beta virt. eigenvalues --    0.15835   0.20129   0.22263   0.25106   0.48922
  Beta virt. eigenvalues --    0.68011   0.70162   0.71254   0.78825   0.79148

 Mulliken charges and spin densities:
               1          2
     1  C   -0.673780  -0.000113
     2  C    0.104813  -0.003898
     3  H    0.231355  -0.000337
     4  H    0.222137  -0.000612
     5  H    0.248473  -0.002534
     6  C   -0.379998   0.045154
     7  H    0.242981  -0.002190
     8  O   -0.331223   1.001615
     9  H    0.335242  -0.037085
 Sum of Mulliken charges =   0.00000   1.00000

 Dipole moment (field-independent basis, Debye):
    X=             -1.1458    Y=             -0.9155    Z=             -0.5446  Tot=              1.5645
 Quadrupole moment (field-independent basis, Debye-Ang):
   XX=            -20.9475   YY=            -22.0968   ZZ=            -26.8197
   XY=             -2.5894   XZ=             -3.1633   YZ=             -1.3247

  Exact polarizability:  31.238 -12.233  33.062   0.416  -1.406  28.767
 Approx polarizability:  46.934 -23.698  50.674   2.682  -1.947  34.388

 ******    1 imaginary frequencies (negative Signs) ******

                      1                      2                      3
                      A                      A                      A
 Frequencies --   -105.1029               150.0862               185.2146
 Red. masses --      4.9956                 1.0631                 3.6243
 Frc consts  --      0.0325                 0.0141                 0.0733
 IR Inten    --      8.0291                11.2487                13.3684

                      4                      5                      6
                      A                      A                      A
 Frequencies --    276.8203               292.5886               352.6298
 Red. masses --      1.2287                 1.2429                 2.7399
 Frc consts  --      0.0555                 0.0627                 0.2007
 IR Inten    --     70.1218                48.3842                19.7870

                      7                      8                      9
                      A                      A                      A
 Frequencies --    366.9012               707.2108               719.8941
 Red. masses --      2.0715                 1.2672                 1.2643
 Frc consts  --      0.1643                 0.3734                 0.3861
 IR Inten    --     84.2631                54.6476                52.9051

                     10                     11                     12
                      A                      A                      A
 Frequencies --    917.2533              1104.8666              1117.2249
 Red. masses --      4.8492                 1.3965                 1.3880
 Frc consts  --      2.4038                 1.0044                 1.0208
 IR Inten    --      1.4676                14.5017                 3.3696

                     13                     14                     15
                      A                      A                      A
 Frequencies --   1449.9572              1543.2076              1568.5271
 Red. masses --      1.1804                 1.0380                 1.0408
 Frc consts  --      1.4621                 1.4564                 1.5087
 IR Inten    --     10.0986                 4.6102                 8.7300

                     16                     17                     18
                      A                      A                      A
 Frequencies --   2230.5209              3052.1550              3109.0299
 Red. masses --      5.8117                 1.0328                 1.0991
 Frc consts  --     17.0360                 5.6684                 6.2597
 IR Inten    --     10.0470                14.1734                 8.6980

                     19                     20                     21
                      A                      A                      A
 Frequencies --   3134.2144              3309.5824              3495.5513
 Red. masses --      1.0977                 1.0669                 1.1644
 Frc consts  --      6.3530                 6.8851                 8.3827
 IR Inten    --      0.0273                 6.4029                58.6648

 - Thermochemistry -
 -------------------
 Temperature   298.150 Kelvin.  Pressure   1.00000 Atm.
 Atom     1 has atomic number  6 and mass  12.00000

 Molecular mass:    57.03404 amu.
 Principal axes and moments of inertia in atomic units:
                           1         2         3
     Eigenvalues --   214.36853 317.83056 515.39239
           X           -0.07801  -0.63919   0.76508
           Y            0.06491   0.76254   0.64368
           Z            0.99484  -0.09988   0.01800
 This molecule is an asymmetric top.
 Rotational symmetry number  1.
 Rotational temperatures (Kelvin)      0.40404     0.27252     0.16805
 Rotational constants (GHZ):           8.41887     5.67831     3.50168
    1 imaginary frequencies ignored.
 Zero-point vibrational energy     173957.6 (Joules/Mol)
                                   41.57686 (Kcal/Mol)
 Warning -- explicit consideration of   6 degrees of freedom as
           vibrations may cause significant error
 Vibrational temperatures:    215.94   266.48   398.28   420.97   507.35
          (Kelvin)            527.89  1017.52  1035.77  1319.72  1589.65
                             1607.44  2086.16  2220.33  2256.76  3209.22
                             4391.36  4473.19  4509.43  4761.74  5029.31

 Zero-point correction=                           0.066257 (Hartree/Particle)
 Thermal correction to Energy=                    0.072225
 Thermal correction to Enthalpy=                  0.073169
 Thermal correction to Gibbs Free Energy=         0.037269
 Sum of electronic and zero-point Energies=           -191.266501
 Sum of electronic and thermal Energies=              -191.260533
 Sum of electronic and thermal Enthalpies=            -191.259589
 Sum of electronic and thermal Free Energies=         -191.295489

                     E (Thermal)             CV                S
                      KCal/Mol        Cal/Mol-Kelvin    Cal/Mol-Kelvin
 Total                   45.322             19.081             75.558
 Electronic               0.000              0.000              1.377
 Translational            0.889              2.981             38.044
 Rotational               0.889              2.981             25.066
 Vibrational             43.544             13.120             11.070
 Vibration     1          0.618              1.903              2.671
 Vibration     2          0.631              1.860              2.275
 Vibration     3          0.678              1.716              1.553
 Vibration     4          0.688              1.688              1.459
 Vibration     5          0.729              1.570              1.154
 Vibration     6          0.740              1.540              1.093

 Normal termination of Gaussian 09 at Fri Jan  8 03:18:02 2021.
