 Gaussian 09, Revision D.01,
 Gaussian 09:  ES64L-G09RevD.01 24-Apr-2013

 ----------------------------------------------------------------------
 #P b3lyp/3-21G scf=qc opt(calcall, ts, noeigentest, cartesian,maxcycle
 =100)
 ----------------------------------------------------------------------

 ------------------------------
 Gaussian input prepared by ASE
 ------------------------------
 Symbolic Z-matrix:
 Charge =  0 Multiplicity = 2

 SCF Done:  E(UB3LYP) =  -191.332758017     a.u. after    8 cycles
 SCF Done:  E(UB3LYP) =  -191.332757753     a.u. after    3 cycles
 Optimization completed.
    -- Stationary point found.

                         Standard orientation:
 ---------------------------------------------------------------------
 Center     Atomic      Atomic             Coordinates (Angstroms)
 Number     Number       Type             X           Y           Z
 ---------------------------------------------------------------------
      1          6           0       -1.026347   -1.096280    0.009733
      2          6           0       -0.730912    0.337653   -0.004891
      3          1           0       -1.592942   -1.387738   -0.881968
      4          1           0       -1.607482   -1.373968    0.896600
      5          1           0       -0.067121   -1.622510    0.013763
      6          6           0       -0.453361    1.514039   -0.014588
      7          1           0       -0.233307    2.552276   -0.041053
      8          8           0        1.877540   -0.350754   -0.091512
      9          1           0        1.744253    0.105491    0.803227
 ---------------------------------------------------------------------

 The electronic state is 2-A.
 Alpha  occ. eigenvalues --  -19.06036 -10.13740 -10.13637 -10.12060  -0.96871
 Alpha  occ. eigenvalues --   -0.78289  -0.70935  -0.53385  -0.45582  -0.43367
 Alpha  occ. eigenvalues --   -0.43147  -0.42033  -0.36086  -0.28597  -0.27527
 Alpha  occ. eigenvalues --   -0.26961
 Alpha virt. eigenvalues --    0.05719   0.05942   0.10842   0.13671   0.15717
 Alpha virt. eigenvalues --    0.20124   0.22149   0.25062   0.48869   0.67915
 Alpha virt. eigenvalues --    0.70121   0.70774   0.78686   0.79017   0.89399

  Beta  occ. eigenvalues --  -19.03729 -10.13727 -10.13627 -10.11985  -0.90196
  Beta  occ. eigenvalues --   -0.78168  -0.70824  -0.53314  -0.45543  -0.43162
  Beta  occ. eigenvalues --   -0.43076  -0.39446  -0.27560  -0.27418  -0.25838
  Beta virt. eigenvalues --   -0.10693   0.05801   0.06191   0.11817   0.13755
  Beta virt. eigenvalues --    0.15836   0.20126   0.22265   0.25101   0.48920
  Beta virt. eigenvalues --    0.68009   0.70164   0.71246   0.78821   0.79144

 Mulliken charges and spin densities:
               1          2
     1  C   -0.673868  -0.000108
     2  C    0.104557  -0.003978
     3  H    0.231367  -0.000336
     4  H    0.222165  -0.000605
     5  H    0.248443  -0.002550
     6  C   -0.380010   0.044770
     7  H    0.242987  -0.002169
     8  O   -0.331051   1.002062
     9  H    0.335410  -0.037087
 Sum of Mulliken charges =   0.00000   1.00000

 Dipole moment (field-independent basis, Debye):
    X=             -0.4753    Y=              0.1589    Z=              1.4829  Tot=              1.5653
 Quadrupole moment (field-independent basis, Debye-Ang):
   XX=            -25.4828   YY=            -20.0349   ZZ=            -23.9762
   XY=              2.7227   XZ=              3.1041   YZ=             -0.0840

  Exact polarizability:  29.021   2.450  44.091   0.545   1.043  19.899
 Approx polarizability:  34.962   6.058  71.774  -0.567   2.338  25.177

 ******    1 imaginary frequencies (negative Signs) ******

                      1                      2                      3
                      A                      A                      A
 Frequencies --   -104.1215               149.0357               185.5230
 Red. masses --      5.1300                 1.0607                 3.7326
 Frc consts  --      0.0328                 0.0139                 0.0757
 IR Inten    --      7.2613                13.1030                12.5820

                      4                      5                      6
                      A                      A                      A
 Frequencies --    277.9230               287.9001               353.0029
 Red. masses --      1.1949                 1.2354                 2.7365
 Frc consts  --      0.0544                 0.0603                 0.2009
 IR Inten    --     70.2533                51.6795                21.1039

                      7                      8                      9
                      A                      A                      A
 Frequencies --    365.8309               707.5018               719.0538
 Red. masses --      2.1448                 1.2667                 1.2658
 Frc consts  --      0.1691                 0.3736                 0.3856
 IR Inten    --     79.8631                54.6371                52.7864

                     10                     11                     12
                      A                      A                      A
 Frequencies --    917.1761              1105.0659              1118.0323
 Red. masses --      4.8486                 1.3965                 1.3873
 Frc consts  --      2.4031                 1.0048                 1.0217
 IR Inten    --      1.4785                14.6616                 3.3829

                     13                     14                     15
                      A                      A                      A
 Frequencies --   1450.4176              1543.7261              1568.9743
 Red. masses --      1.1804                 1.0380                 1.0408
 Frc consts  --      1.4631                 1.4575                 1.5095
 IR Inten    --     10.0863                 4.5516                 8.7374

                     16                     17                     18
                      A                      A                      A
 Frequencies --   2230.7534              3052.0474              3109.1649
 Red. masses --      5.8105                 1.0327                 1.0991
 Frc consts  --     17.0360                 5.6676                 6.2602
 IR Inten    --      9.9206                14.1776                 8.6886

                     19                     20                     21
                      A                      A                      A
 Frequencies --   3133.5320              3309.6444              3495.5534
 Red. masses --      1.0978                 1.0669                 1.1644
 Frc consts  --      6.3511                 6.8853                 8.3831
 IR Inten    --      0.0292                 6.3457                58.6567

 - Thermochemistry -
 -------------------
 Temperature   298.150 Kelvin.  Pressure   1.00000 Atm.
 Atom     1 has atomic number  6 and mass  12.00000

 Molecular mass:    57.03404 amu.
 Principal axes and moments of inertia in atomic units:
                           1         2         3
     Eigenvalues --   214.40257 318.21949 515.82353
           X            0.98950   0.14367   0.01596
           Y           -0.14369   0.98962  -0.00013
           Z           -0.01581  -0.00216   0.99987
 This molecule is an asymmetric top.
 Rotational symmetry number  1.
 Rotational temperatures (Kelvin)      0.40398     0.27218     0.16791
 Rotational constants (GHZ):           8.41754     5.67137     3.49876
    1 imaginary frequencies ignored.
 Zero-point vibrational energy     173936.2 (Joules/Mol)
                                   41.57174 (Kcal/Mol)
 Warning -- explicit consideration of   6 degrees of freedom as
           vibrations may cause significant error
 Vibrational temperatures:    214.43   266.93   399.87   414.22   507.89
          (Kelvin)            526.35  1017.94  1034.56  1319.61  1589.94
                             1608.60  2086.82  2221.07  2257.40  3209.55
                             4391.21  4473.39  4508.45  4761.83  5029.32

 Zero-point correction=                           0.066249 (Hartree/Particle)
 Thermal correction to Energy=                    0.072223
 Thermal correction to Enthalpy=                  0.073168
 Thermal correction to Gibbs Free Energy=         0.037251
 Sum of electronic and zero-point Energies=           -191.266509
 Sum of electronic and thermal Energies=              -191.260534
 Sum of electronic and thermal Enthalpies=            -191.259590
 Sum of electronic and thermal Free Energies=         -191.295507

                     E (Thermal)             CV                S
                      KCal/Mol        Cal/Mol-Kelvin    Cal/Mol-Kelvin
 Total                   45.321             19.090             75.594
 Electronic               0.000              0.000              1.377
 Translational            0.889              2.981             38.044
 Rotational               0.889              2.981             25.068
 Vibrational             43.543             13.129             11.104
 Vibration     1          0.618              1.904              2.685
 Vibration     2          0.632              1.860              2.272
 Vibration     3          0.679              1.714              1.546
 Vibration     4          0.685              1.696              1.486
 Vibration     5          0.729              1.569              1.153
 Vibration     6          0.739              1.543              1.097

 Normal termination of Gaussian 09 at Fri Jan  8 03:28:35 2021.
