 Gaussian 09, Revision D.01,
 Gaussian 09:  ES64L-G09RevD.01 24-Apr-2013

 ----------------------------------------------------------------------
 #P b3lyp/3-21G scf=qc opt(calcall, ts, noeigentest, cartesian,maxcycle
 =100)
 ----------------------------------------------------------------------

 ------------------------------
 Gaussian input prepared by ASE
 ------------------------------
 Symbolic Z-matrix:
 Charge =  0 Multiplicity = 2

 SCF Done:  E(UB3LYP) =  -191.372415357     a.u. after    7 cycles
 SCF Done:  E(UB3LYP) =  -191.375551878     a.u. after    7 cycles
 SCF Done:  E(UB3LYP) =  -191.375598286     a.u. after    6 cycles
 SCF Done:  E(UB3LYP) =  -191.375628386     a.u. after    4 cycles
 SCF Done:  E(UB3LYP) =  -191.375624774     a.u. after    6 cycles
 SCF Done:  E(UB3LYP) =  -191.375640408     a.u. after    3 cycles
 SCF Done:  E(UB3LYP) =  -191.375631418     a.u. after    6 cycles
 SCF Done:  E(UB3LYP) =  -191.375646050     a.u. after    3 cycles
 SCF Done:  E(UB3LYP) =  -191.375646154     a.u. after    4 cycles
 SCF Done:  E(UB3LYP) =  -191.375646304     a.u. after    2 cycles
 Optimization completed on the basis of negligible forces.
    -- Stationary point found.

                         Standard orientation:
 ---------------------------------------------------------------------
 Center     Atomic      Atomic             Coordinates (Angstroms)
 Number     Number       Type             X           Y           Z
 ---------------------------------------------------------------------
      1          6           0        1.939482   -0.182474    0.000004
      2          6           0        0.535075    0.211621   -0.000070
      3          1           0        2.195963   -0.773418   -0.891150
      4          1           0        2.194630   -0.778020    0.888503
      5          1           0        2.605905    0.696745    0.002850
      6          6           0       -0.727060    0.523374    0.000012
      7          1           0       -1.099496    1.546734    0.000063
      8          8           0       -1.856900   -0.340767    0.000012
      9          1           0       -1.526782   -1.281031   -0.000038
 ---------------------------------------------------------------------

 The electronic state is 2-A.
 Alpha  occ. eigenvalues --  -19.04771 -10.17485 -10.14523 -10.12860  -1.02389
 Alpha  occ. eigenvalues --   -0.78341  -0.70869  -0.57337  -0.47400  -0.45916
 Alpha  occ. eigenvalues --   -0.43296  -0.42175  -0.35212  -0.35098  -0.22122
 Alpha  occ. eigenvalues --   -0.19304
 Alpha virt. eigenvalues --    0.05260   0.10475   0.13077   0.17019   0.17763
 Alpha virt. eigenvalues --    0.19646   0.23957   0.28838   0.46220   0.66843
 Alpha virt. eigenvalues --    0.70981   0.71062   0.77502   0.79288   0.86877

  Beta  occ. eigenvalues --  -19.04526 -10.17721 -10.14632 -10.11534  -1.01748
  Beta  occ. eigenvalues --   -0.76436  -0.70300  -0.56270  -0.46298  -0.44244
  Beta  occ. eigenvalues --   -0.42951  -0.41326  -0.35164  -0.34323  -0.21150
  Beta virt. eigenvalues --   -0.05657   0.05907   0.11109   0.13541   0.17605
  Beta virt. eigenvalues --    0.18584   0.19907   0.25492   0.30283   0.46831
  Beta virt. eigenvalues --    0.67099   0.71706   0.74929   0.77296   0.80821

 Mulliken charges and spin densities:
               1          2
     1  C   -0.666107  -0.106150
     2  C    0.069874   1.010829
     3  H    0.222149   0.022031
     4  H    0.222103   0.022326
     5  H    0.224948   0.069490
     6  C   -0.102019  -0.168815
     7  H    0.210754   0.061955
     8  O   -0.522107   0.078477
     9  H    0.340405   0.009858
 Sum of Mulliken charges =   0.00000   1.00000

 Dipole moment (field-independent basis, Debye):
    X=              1.9145    Y=             -1.0229    Z=              0.0001  Tot=              2.1707
 Quadrupole moment (field-independent basis, Debye-Ang):
   XX=            -25.4527   YY=            -20.7162   ZZ=            -25.6752
   XY=              0.4294   XZ=              0.0003   YZ=              0.0003

  Exact polarizability:  51.267  -2.021  29.410  -0.001   0.000  16.636
 Approx polarizability:  79.233  -3.585  37.849  -0.005   0.001  20.263

 ******    1 imaginary frequencies (negative Signs) ******

                      1                      2                      3
                      A                      A                      A
 Frequencies --   -204.4961                41.2166               248.1261
 Red. masses --      4.0911                 1.1596                 2.6876
 Frc consts  --      0.1008                 0.0012                 0.0975
 IR Inten    --      7.5609                 1.1406                 1.3834

                      4                      5                      6
                      A                      A                      A
 Frequencies --    446.8255               476.5020               808.1550
 Red. masses --      4.2663                 1.3034                 4.8688
 Frc consts  --      0.5019                 0.1744                 1.8735
 IR Inten    --     23.1970               151.1009                52.7489

                      7                      8                      9
                      A                      A                      A
 Frequencies --    862.1163              1019.5013              1043.6991
 Red. masses --      1.4687                 4.2378                 1.4013
 Frc consts  --      0.6432                 2.5952                 0.8994
 IR Inten    --     20.0995               105.8931                23.2316

                     10                     11                     12
                      A                      A                      A
 Frequencies --   1083.8070              1261.6454              1401.8840
 Red. masses --      1.3532                 1.1989                 1.1465
 Frc consts  --      0.9365                 1.1244                 1.3275
 IR Inten    --      3.6543                25.0810                19.6398

                     13                     14                     15
                      A                      A                      A
 Frequencies --   1467.4620              1532.3569              1545.3390
 Red. masses --      1.1844                 1.0451                 1.0374
 Frc consts  --      1.5027                 1.4458                 1.4597
 IR Inten    --      1.2047                 6.9211                 8.9183

                     16                     17                     18
                      A                      A                      A
 Frequencies --   1851.7274              2979.0915              3027.2836
 Red. masses --      9.1856                 1.0469                 1.0780
 Frc consts  --     18.5572                 5.4741                 5.8206
 IR Inten    --     57.6228                27.5637                19.7987

                     19                     20                     21
                      A                      A                      A
 Frequencies --   3056.9025              3122.9573              3465.3069
 Red. masses --      1.0986                 1.0848                 1.0655
 Frc consts  --      6.0487                 6.2337                 7.5387
 IR Inten    --     16.3785                12.5935                 1.5624

 - Thermochemistry -
 -------------------
 Temperature   298.150 Kelvin.  Pressure   1.00000 Atm.
 Atom     1 has atomic number  6 and mass  12.00000

 Molecular mass:    57.03404 amu.
 Principal axes and moments of inertia in atomic units:
                           1         2         3
     Eigenvalues --    47.93328 469.52033 506.05487
           X            0.99993  -0.01157   0.00000
           Y            0.01157   0.99993   0.00001
           Z            0.00000  -0.00001   1.00000
 This molecule is an asymmetric top.
 Rotational symmetry number  1.
 Rotational temperatures (Kelvin)      1.80697     0.18447     0.17115
 Rotational constants (GHZ):          37.65111     3.84380     3.56630
    1 imaginary frequencies ignored.
 Zero-point vibrational energy     183877.4 (Joules/Mol)
                                   43.94776 (Kcal/Mol)
 Warning -- explicit consideration of   4 degrees of freedom as
           vibrations may cause significant error
 Vibrational temperatures:     59.30   357.00   642.88   685.58  1162.75
          (Kelvin)           1240.39  1466.83  1501.65  1559.35  1815.22
                             2017.00  2111.35  2204.72  2223.40  2664.22
                             4286.24  4355.58  4398.20  4493.23  4985.80

 Zero-point correction=                           0.070035 (Hartree/Particle)
 Thermal correction to Energy=                    0.074985
 Thermal correction to Enthalpy=                  0.075929
 Thermal correction to Gibbs Free Energy=         0.041473
 Sum of electronic and zero-point Energies=           -191.305611
 Sum of electronic and thermal Energies=              -191.300662
 Sum of electronic and thermal Enthalpies=            -191.299717
 Sum of electronic and thermal Free Energies=         -191.334173

                     E (Thermal)             CV                S
                      KCal/Mol        Cal/Mol-Kelvin    Cal/Mol-Kelvin
 Total                   47.054             15.061             72.518
 Electronic               0.000              0.000              1.377
 Translational            0.889              2.981             38.044
 Rotational               0.889              2.981             23.947
 Vibrational             45.276              9.099              9.149
 Vibration     1          0.594              1.981              5.200
 Vibration     2          0.662              1.766              1.744
 Vibration     3          0.806              1.368              0.805
 Vibration     4          0.833              1.302              0.720

 Normal termination of Gaussian 09 at Wed Jan  6 11:42:27 2021.
