 Gaussian 09, Revision D.01,
 Gaussian 09:  ES64L-G09RevD.01 24-Apr-2013

 ----------------------------------------------------------------------
 #P upm6 scf=qc opt(calcall, ts, noeigentest, cartesian,maxcycle=100) N
 oSymm, guess=mix
 ----------------------------------------------------------------------

 ------------------------------
 Gaussian input prepared by ASE
 ------------------------------
 Symbolic Z-matrix:
 Charge =  0 Multiplicity = 2

 SCF Done:  E(UPM6) = -0.128269799828     a.u. after   11 cycles

 Alpha  occ. eigenvalues --   -1.20176  -1.19205  -1.15646  -1.13253  -1.09976
 Alpha  occ. eigenvalues --   -1.07661  -1.05557  -1.00261  -0.98737  -0.88541
 Alpha  occ. eigenvalues --   -0.80947  -0.80183  -0.73307  -0.72068  -0.68441
 Alpha  occ. eigenvalues --   -0.66304  -0.65334  -0.63381  -0.62721  -0.60070
 Alpha  occ. eigenvalues --   -0.59410  -0.57669  -0.56031  -0.55490  -0.54812
 Alpha  occ. eigenvalues --   -0.53254  -0.52426  -0.50615  -0.49914  -0.49221
 Alpha  occ. eigenvalues --   -0.48664  -0.47210  -0.46363  -0.43185  -0.40539
 Alpha  occ. eigenvalues --   -0.38266  -0.37688  -0.37399
 Alpha virt. eigenvalues --   -0.02538  -0.00806   0.00179   0.01173   0.06184
 Alpha virt. eigenvalues --    0.07074   0.07966   0.09182   0.10647   0.11429
 Alpha virt. eigenvalues --    0.11691   0.12535   0.14101   0.15012   0.15459

  Beta  occ. eigenvalues --   -1.20004  -1.19197  -1.14247  -1.13164  -1.09885
  Beta  occ. eigenvalues --   -1.06567  -1.00305  -0.98815  -0.98445  -0.88256
  Beta  occ. eigenvalues --   -0.79924  -0.79729  -0.73148  -0.71940  -0.67241
  Beta  occ. eigenvalues --   -0.65254  -0.64896  -0.62815  -0.61108  -0.59353
  Beta  occ. eigenvalues --   -0.59035  -0.57583  -0.55790  -0.54947  -0.53591
  Beta  occ. eigenvalues --   -0.52488  -0.51527  -0.50499  -0.49685  -0.49048
  Beta  occ. eigenvalues --   -0.48128  -0.46548  -0.44545  -0.41329  -0.40526
  Beta  occ. eigenvalues --   -0.37685  -0.36121
  Beta virt. eigenvalues --   -0.05983  -0.02508   0.00184   0.01017   0.01655
  Beta virt. eigenvalues --    0.06305   0.07104   0.07981   0.09434   0.11142
  Beta virt. eigenvalues --    0.11807   0.12300   0.12707   0.14732   0.15040

 Mulliken charges and spin densities:
               1          2
     1  O   -0.426644   0.013985
     2  C    0.566681  -0.000072
     3  C   -0.427843  -0.019589
     4  C   -0.140081   0.515038
     5  C   -0.313336  -0.018283
     6  C   -0.058465   0.001979
     7  H    0.177232  -0.000388
     8  C    0.540506  -0.000151
     9  O   -0.475021   0.000045
    10  C   -0.627469  -0.000012
    11  H    0.296829   0.000075
    12  H    0.198711   0.000857
    13  H    0.201237   0.011881
    14  H    0.156470  -0.010544
    15  H    0.249566  -0.109837
    16  H    0.167042   0.005309
    17  H    0.189315   0.016152
    18  H    0.199716  -0.000003
    19  H    0.213002   0.000002
    20  H    0.201724  -0.000001
    21  O   -0.192538  -0.000474
    22  O   -0.304889  -0.000087
    23  O   -0.243424   0.590038
    24  O   -0.148320   0.004081
 Sum of Mulliken charges =   0.00000   1.00000

 Dipole moment (field-independent basis, Debye):
    X=             -3.1253    Y=              3.4476    Z=             -0.1383  Tot=              4.6554
 N-N= 5.162741925503D+02 E-N=-9.364520426911D+02  KE=-4.401995343856D+01
  Exact polarizability:  94.520 -24.665  63.306  -1.811  -3.552 100.427
 Approx polarizability:  60.326 -16.805  45.907 -11.721   0.624  78.059
 Leave Link  601 at Sun Feb  7 04:31:28 2021, MaxMem=    33554432 cpu:         0.0
 (Enter /apps/applications/gaussian/G09.D01/2/default/g09/l701.exe)
 Compute integral second derivatives.
 ... and contract with generalized density number  0.
 Leave Link  701 at Sun Feb  7 04:31:28 2021, MaxMem=    33554432 cpu:         0.1
 (Enter /apps/applications/gaussian/G09.D01/2/default/g09/l702.exe)
 L702 exits ... SP integral derivatives will be done elsewhere.

 Optimization completed.
    -- Stationary point found.

                          Input orientation:
 ---------------------------------------------------------------------
 Center     Atomic      Atomic             Coordinates (Angstroms)
 Number     Number       Type             X           Y           Z
 ---------------------------------------------------------------------
      1          8           0        4.046312   -2.371176    0.319876
      2          6           0        3.166836   -1.586119    0.544342
      3          6           0        2.530066   -0.577712   -0.375403
      4          6           0        1.056351   -0.400508   -0.099302
      5          6           0        0.502003    0.976666   -0.364168
      6          6           0       -1.010165    1.058367   -0.129042
      7          1           0       -1.342128    2.110139    0.046421
      8          6           0       -1.825387    0.482326   -1.311863
      9          8           0       -1.387440    0.569431   -2.435415
     10          6           0       -3.149039   -0.112284   -0.975764
     11          1           0       -1.732801    1.019376    2.707756
     12          1           0        3.081556    0.385871   -0.267892
     13          1           0        2.694692   -0.894700   -1.432188
     14          1           0        0.427986   -1.231326   -0.450252
     15          1           0        0.860859   -0.620156    1.200741
     16          1           0        1.020156    1.730652    0.265400
     17          1           0        0.709668    1.266584   -1.424913
     18          1           0       -3.418939   -0.920823   -1.671092
     19          1           0       -3.183623   -0.513927    0.052534
     20          1           0       -3.948847    0.641420   -1.044170
     21          8           0       -1.276608    0.267579    1.059010
     22          8           0       -2.215507    1.017403    1.824838
     23          8           0        1.804786   -0.615654    2.112212
     24          8           0        2.589211   -1.681429    1.848335
 ---------------------------------------------------------------------

 ******    1 imaginary frequencies (negative Signs) ******

                      1                      2                      3
                      A                      A                      A
 Frequencies --  -1872.0852                19.5317                25.6867
 Red. masses --      1.1624                 5.0624                 6.6427
 Frc consts  --      2.4004                 0.0011                 0.0026
 IR Inten    --   1602.8108                 1.3937                 1.4234

                      4                      5                      6
                      A                      A                      A
 Frequencies --     31.7317                50.6593                57.9306
 Red. masses --      4.7305                 1.9198                 1.7356
 Frc consts  --      0.0028                 0.0029                 0.0034
 IR Inten    --      8.8063                 2.1890                 0.8063

                      7                      8                      9
                      A                      A                      A
 Frequencies --     60.1487                92.8347               145.8603
 Red. masses --      4.3752                 5.9900                 3.8423
 Frc consts  --      0.0093                 0.0304                 0.0482
 IR Inten    --      5.1419                 0.2753                 2.3113

                     10                     11                     12
                      A                      A                      A
 Frequencies --    184.2104               212.2229               228.1416
 Red. masses --      1.1605                 8.2014                 3.2250
 Frc consts  --      0.0232                 0.2176                 0.0989
 IR Inten    --     83.1593                 0.2513                 8.9941

                     13                     14                     15
                      A                      A                      A
 Frequencies --    287.0980               298.5842               314.6904
 Red. masses --      3.5429                 3.9264                 5.8548
 Frc consts  --      0.1721                 0.2062                 0.3416
 IR Inten    --      6.1142                 8.2084                 0.5839

                     16                     17                     18
                      A                      A                      A
 Frequencies --    381.7929               417.9028               420.9732
 Red. masses --      5.8800                 3.5911                 4.3641
 Frc consts  --      0.5050                 0.3695                 0.4557
 IR Inten    --     10.8903                 7.4472                 7.8046

                     19                     20                     21
                      A                      A                      A
 Frequencies --    442.8958               491.1087               533.9470
 Red. masses --      4.6606                 3.9059                 3.7545
 Frc consts  --      0.5386                 0.5550                 0.6307
 IR Inten    --     17.3924                15.7342                 4.0268

                     22                     23                     24
                      A                      A                      A
 Frequencies --    576.4068               621.9203               674.7314
 Red. masses --      5.0664                 6.9592                 3.7476
 Frc consts  --      0.9918                 1.5859                 1.0052
 IR Inten    --      1.7080                18.1328                 0.9405

                     25                     26                     27
                      A                      A                      A
 Frequencies --    806.0453               855.7881               885.0784
 Red. masses --      1.6155                 1.8712                 2.5035
 Frc consts  --      0.6184                 0.8074                 1.1555
 IR Inten    --     21.1391                16.5545                24.1983

                     28                     29                     30
                      A                      A                      A
 Frequencies --    907.5605               961.2849               989.9986
 Red. masses --      2.4839                 3.3157                 1.9575
 Frc consts  --      1.2054                 1.8052                 1.1304
 IR Inten    --     28.6264                41.4143                10.4851

                     31                     32                     33
                      A                      A                      A
 Frequencies --   1007.8524              1022.0963              1027.8507
 Red. masses --      4.8165                 1.9272                 1.6622
 Frc consts  --      2.8825                 1.1862                 1.0347
 IR Inten    --     13.9911                34.2071                63.3734

                     34                     35                     36
                      A                      A                      A
 Frequencies --   1049.6440              1094.5498              1096.0383
 Red. masses --      1.9805                 1.5657                 1.2622
 Frc consts  --      1.2856                 1.1052                 0.8934
 IR Inten    --     17.5123                15.1895                32.4223

                     37                     38                     39
                      A                      A                      A
 Frequencies --   1145.1501              1164.8111              1177.7801
 Red. masses --      1.5547                 1.5014                 2.5752
 Frc consts  --      1.2012                 1.2002                 2.1047
 IR Inten    --     10.9267                64.9537                64.5674

                     40                     41                     42
                      A                      A                      A
 Frequencies --   1184.6027              1194.8450              1201.2290
 Red. masses --      1.8385                 1.6310                 1.0990
 Frc consts  --      1.5201                 1.3719                 0.9344
 IR Inten    --     16.3765                22.1436                92.2269

                     43                     44                     45
                      A                      A                      A
 Frequencies --   1207.0325              1214.6200              1222.0516
 Red. masses --      2.1341                 1.1049                 1.2694
 Frc consts  --      1.8319                 0.9604                 1.1169
 IR Inten    --     98.0181                96.5689                11.6469

                     46                     47                     48
                      A                      A                      A
 Frequencies --   1226.7758              1243.0197              1250.4992
 Red. masses --      1.3985                 1.4798                 1.2092
 Frc consts  --      1.2401                 1.3471                 1.1141
 IR Inten    --     27.6891                38.4179                47.5373

                     49                     50                     51
                      A                      A                      A
 Frequencies --   1255.7137              1300.7262              1321.3711
 Red. masses --      3.2244                 1.4837                 1.2704
 Frc consts  --      2.9956                 1.4790                 1.3069
 IR Inten    --    125.7935                12.2689               200.9009

                     52                     53                     54
                      A                      A                      A
 Frequencies --   1334.1099              1392.3385              1630.5516
 Red. masses --      2.7588                 1.1598                 1.0980
 Frc consts  --      2.8930                 1.3247                 1.7199
 IR Inten    --     63.3810                39.5850                81.6679

                     55                     56                     57
                      A                      A                      A
 Frequencies --   1806.7449              1845.0826              2644.1585
 Red. masses --     11.9366                12.3556                 1.0816
 Frc consts  --     22.9574                24.7825                 4.4554
 IR Inten    --    298.3105               443.5183                63.4851

                     58                     59                     60
                      A                      A                      A
 Frequencies --   2647.9612              2648.7162              2664.9231
 Red. masses --      1.0614                 1.0815                 1.0657
 Frc consts  --      4.3850                 4.4702                 4.4594
 IR Inten    --    176.4003               113.4510                75.0322

                     61                     62                     63
                      A                      A                      A
 Frequencies --   2670.5376              2684.6314              2700.8817
 Red. masses --      1.0859                 1.0875                 1.0625
 Frc consts  --      4.5630                 4.6179                 4.5665
 IR Inten    --    139.5753               124.7227                82.0617

                     64                     65                     66
                      A                      A                      A
 Frequencies --   2722.1799              2729.5238              2780.2912
 Red. masses --      1.0511                 1.0561                 1.0320
 Frc consts  --      4.5892                 4.6358                 4.7002
 IR Inten    --     36.8341               178.2371                90.6812

 - Thermochemistry -
 -------------------
 Temperature   298.150 Kelvin.  Pressure   1.00000 Atm.
 Atom     1 has atomic number  8 and mass  15.99491

 Molecular mass:   191.05556 amu.
 Principal axes and moments of inertia in atomic units:
                           1         2         3
     Eigenvalues --  1316.360504498.453395280.13669
           X            0.89783  -0.21338   0.38518
           Y           -0.37483   0.08871   0.92284
           Z            0.23108   0.97293   0.00033
 This molecule is an asymmetric top.
 Rotational symmetry number  1.
 Warning -- assumption of classical behavior for rotation
           may cause significant error
 Rotational temperatures (Kelvin)      0.06580     0.01925     0.01640
 Rotational constants (GHZ):           1.37101     0.40119     0.34180
    1 imaginary frequencies ignored.
 Zero-point vibrational energy     427591.1 (Joules/Mol)
                                  102.19674 (Kcal/Mol)
 Warning -- explicit consideration of  21 degrees of freedom as
           vibrations may cause significant error
 Vibrational temperatures:     28.10    36.96    45.65    72.89    83.35
          (Kelvin)             86.54   133.57   209.86   265.04   305.34
                              328.24   413.07   429.60   452.77   549.31
                              601.27   605.69   637.23   706.59   768.23
                              829.32   894.80   970.79  1159.72  1231.29
                             1273.43  1305.78  1383.07  1424.39  1450.07
                             1470.57  1478.85  1510.20  1574.81  1576.95
                             1647.61  1675.90  1694.56  1704.38  1719.11
                             1728.30  1736.65  1747.57  1758.26  1765.05
                             1788.43  1799.19  1806.69  1871.45  1901.16
                             1919.48  2003.26  2346.00  2599.50  2654.66
                             3804.35  3809.82  3810.91  3834.23  3842.30
                             3862.58  3885.96  3916.60  3927.17  4000.21

 Zero-point correction=                           0.162861 (Hartree/Particle)
 Thermal correction to Energy=                    0.177953
 Thermal correction to Enthalpy=                  0.178898
 Thermal correction to Gibbs Free Energy=         0.116168
 Sum of electronic and zero-point Energies=              0.034591
 Sum of electronic and thermal Energies=                 0.049684
 Sum of electronic and thermal Enthalpies=               0.050628
 Sum of electronic and thermal Free Energies=           -0.012102

                     E (Thermal)             CV                S
                      KCal/Mol        Cal/Mol-Kelvin    Cal/Mol-Kelvin
 Total                  111.667             51.570            132.025
 Electronic               0.000              0.000              1.377
 Translational            0.889              2.981             41.648
 Rotational               0.889              2.981             31.814
 Vibrational            109.890             45.608             57.186
 Vibration     1          0.593              1.986              6.681
 Vibration     2          0.593              1.985              6.137
 Vibration     3          0.594              1.983              5.718
 Vibration     4          0.595              1.977              4.791
 Vibration     5          0.596              1.974              4.526
 Vibration     6          0.597              1.973              4.452
 Vibration     7          0.602              1.954              3.599
 Vibration     8          0.617              1.907              2.726
 Vibration     9          0.631              1.861              2.285
 Vibration    10          0.643              1.822              2.024
 Vibration    11          0.651              1.798              1.894
 Vibration    12          0.684              1.698              1.491
 Vibration    13          0.692              1.676              1.425
 Vibration    14          0.702              1.646              1.338
 Vibration    15          0.751              1.509              1.032
 Vibration    16          0.781              1.431              0.899
 Vibration    17          0.783              1.425              0.889
 Vibration    18          0.803              1.377              0.818
 Vibration    19          0.847              1.270              0.681
 Vibration    20          0.889              1.175              0.578
 Vibration    21          0.933              1.082              0.492

 Normal termination of Gaussian 09 at Sun Feb  7 04:31:29 2021.
