 Gaussian 09, Revision D.01,
 Gaussian 09:  ES64L-G09RevD.01 24-Apr-2013

 ----------------------------------------------------------------------
 #P b3lyp/3-21G scf=qc opt(calcall, ts, noeigentest, cartesian,maxcycle
 =100) NoSymm
 ----------------------------------------------------------------------

 ------------------------------
 Gaussian input prepared by ASE
 ------------------------------
 Symbolic Z-matrix:
 Charge =  0 Multiplicity = 2

 SCF Done:  E(UB3LYP) =  -191.299461404     a.u. after    9 cycles

 Alpha  occ. eigenvalues --  -19.08647 -10.14119 -10.12705 -10.12094  -1.04099
 Alpha  occ. eigenvalues --   -0.77487  -0.70140  -0.55074  -0.47137  -0.42893
 Alpha  occ. eigenvalues --   -0.42883  -0.42227  -0.35629  -0.28477  -0.26446
 Alpha  occ. eigenvalues --   -0.26259
 Alpha virt. eigenvalues --    0.05038   0.06120   0.09315   0.13959   0.17891
 Alpha virt. eigenvalues --    0.20256   0.22383   0.25034   0.52722   0.69609
 Alpha virt. eigenvalues --    0.70928   0.72995   0.78862   0.80303   0.88181

  Beta  occ. eigenvalues --  -19.07660 -10.14082 -10.12031 -10.11210  -1.01680
  Beta  occ. eigenvalues --   -0.77139  -0.68795  -0.53710  -0.46657  -0.42952
  Beta  occ. eigenvalues --   -0.42876  -0.38936  -0.32070  -0.25326  -0.25149
  Beta virt. eigenvalues --   -0.13642   0.06739   0.07511   0.10118   0.13987
  Beta virt. eigenvalues --    0.18180   0.20496   0.23141   0.25288   0.53605
  Beta virt. eigenvalues --    0.70755   0.71342   0.73304   0.80019   0.81463

 Mulliken charges and spin densities:
               1          2
     1  C   -0.668903   0.021905
     2  C    0.008578  -0.133804
     3  H    0.232250  -0.000588
     4  H    0.230151  -0.005403
     5  H    0.226843  -0.005730
     6  C   -0.304860   0.788063
     7  H    0.395294  -0.009179
     8  O   -0.483359   0.354595
     9  H    0.364006  -0.009860
 Sum of Mulliken charges =   0.00000   1.00000

 Dipole moment (field-independent basis, Debye):
    X=             -1.2513    Y=             -0.5229    Z=              1.3080  Tot=              1.8841
 Quadrupole moment (field-independent basis, Debye-Ang):
   XX=             -6.1106   YY=            -25.2109   ZZ=            -13.5869
   XY=              2.1506   XZ=             -7.7732   YZ=              2.3177

  Exact polarizability:  55.559  19.928  32.841  20.483   9.798  32.477
 Approx polarizability:  79.842  31.516  44.802  28.278  13.909  39.523

 Optimization completed.
    -- Stationary point found.

                          Input orientation:
 ---------------------------------------------------------------------
 Center     Atomic      Atomic             Coordinates (Angstroms)
 Number     Number       Type             X           Y           Z
 ---------------------------------------------------------------------
      1          6           0       -9.056241    0.679219    1.607331
      2          6           0       -7.853392    1.315437    2.147559
      3          1           0       -8.791834   -0.031632    0.814629
      4          1           0       -9.734691    1.426672    1.178272
      5          1           0       -9.598760    0.133094    2.388395
      6          6           0       -6.888890    1.896042    2.613809
      7          1           0       -5.874720    3.092547    3.302939
      8          8           0       -4.942656    2.711209    3.495006
      9          1           0       -5.104496    2.085450    4.260225
 ---------------------------------------------------------------------

 ******    1 imaginary frequencies (negative Signs) ******

                      1                      2                      3
                      A                      A                      A
 Frequencies --   -522.8842                40.6387                67.7098
 Red. masses --      1.0571                 1.2520                 3.2086
 Frc consts  --      0.1703                 0.0012                 0.0087
 IR Inten    --    252.9578                42.0601                14.4446

                      4                      5                      6
                      A                      A                      A
 Frequencies --     91.0157               294.6643               317.6888
 Red. masses --      3.8461                 5.5659                 4.1532
 Frc consts  --      0.0188                 0.2847                 0.2470
 IR Inten    --     17.9801                 4.2723                 1.4749

                      7                      8                      9
                      A                      A                      A
 Frequencies --    343.2865               553.2959               939.4500
 Red. masses --      4.2614                 1.1063                 5.6536
 Frc consts  --      0.2959                 0.1995                 2.9398
 IR Inten    --      4.6667               195.9481                 0.1406

                     10                     11                     12
                      A                      A                      A
 Frequencies --   1088.0254              1096.0219              1469.3092
 Red. masses --      1.3768                 1.3828                 1.1824
 Frc consts  --      0.9603                 0.9787                 1.5040
 IR Inten    --     18.9005                 7.8464                 0.2331

                     13                     14                     15
                      A                      A                      A
 Frequencies --   1546.7740              1549.6196              1587.5450
 Red. masses --      1.0389                 1.0387                 1.0912
 Frc consts  --      1.4645                 1.4696                 1.6203
 IR Inten    --      6.7218                 7.8105               119.4546

                     16                     17                     18
                      A                      A                      A
 Frequencies --   2209.3558              2997.5320              3041.0930
 Red. masses --     11.3937                 1.0563                 1.0323
 Frc consts  --     32.7678                 5.5919                 5.6250
 IR Inten    --     11.5371                55.1592                16.6547

                     19                     20                     21
                      A                      A                      A
 Frequencies --   3095.9646              3098.4870              3468.8964
 Red. masses --      1.0983                 1.0988                 1.0662
 Frc consts  --      6.2022                 6.2156                 7.5594
 IR Inten    --      8.8610                10.5515                44.8905

 - Thermochemistry -
 -------------------
 Temperature   298.150 Kelvin.  Pressure   1.00000 Atm.
 Atom     1 has atomic number  6 and mass  12.00000

 Molecular mass:    57.03404 amu.
 Principal axes and moments of inertia in atomic units:
                           1         2         3
     Eigenvalues --    17.36888 788.10845 791.24531
           X            0.82470  -0.13172  -0.55002
           Y            0.40871   0.81100   0.41861
           Z            0.39093  -0.57003   0.72266
 This molecule is an asymmetric top.
 Rotational symmetry number  1.
 Rotational temperatures (Kelvin)      4.98672     0.10990     0.10947
 Rotational constants (GHZ):         103.90658     2.28997     2.28089
    1 imaginary frequencies ignored.
 Zero-point vibrational energy     172838.7 (Joules/Mol)
                                   41.30944 (Kcal/Mol)
 Warning -- explicit consideration of   7 degrees of freedom as
           vibrations may cause significant error
 Vibrational temperatures:     58.47    97.42   130.95   423.96   457.08
          (Kelvin)            493.91   796.07  1351.66  1565.42  1576.93
                             2114.01  2225.46  2229.55  2284.12  3178.77
                             4312.77  4375.45  4454.40  4458.03  4990.96

 Zero-point correction=                           0.065831 (Hartree/Particle)
 Thermal correction to Energy=                    0.072565
 Thermal correction to Enthalpy=                  0.073509
 Thermal correction to Gibbs Free Energy=         0.034930
 Sum of electronic and zero-point Energies=           -191.233631
 Sum of electronic and thermal Energies=              -191.226896
 Sum of electronic and thermal Enthalpies=            -191.225952
 Sum of electronic and thermal Free Energies=         -191.264531

                     E (Thermal)             CV                S
                      KCal/Mol        Cal/Mol-Kelvin    Cal/Mol-Kelvin
 Total                   45.535             19.205             81.196
 Electronic               0.000              0.000              1.377
 Translational            0.889              2.981             38.044
 Rotational               0.889              2.981             23.897
 Vibrational             43.758             13.244             17.877
 Vibration     1          0.594              1.981              5.228
 Vibration     2          0.598              1.970              4.219
 Vibration     3          0.602              1.956              3.638
 Vibration     4          0.689              1.684              1.447
 Vibration     5          0.704              1.640              1.322
 Vibration     6          0.722              1.589              1.197
 Vibration     7          0.909              1.132              0.537

 Normal termination of Gaussian 09 at Tue Jan  5 12:44:39 2021.
