 Gaussian 09, Revision D.01,
 Gaussian 09:  ES64L-G09RevD.01 24-Apr-2013

 ----------------------------------------------------------------------
 #P pm6 scf=qc opt(calcall, ts, noeigentest, cartesian,maxcycle=100) No
 Symm
 ----------------------------------------------------------------------

 ------------------------------
 Gaussian input prepared by ASE
 ------------------------------
 Symbolic Z-matrix:
 Charge =  0 Multiplicity = 2

 SCF Done:  E(UPM6) = -0.989277857475E-01 a.u. after    9 cycles

 Alpha  occ. eigenvalues --   -1.21205  -1.19101  -1.14389  -1.07755  -1.06295
 Alpha  occ. eigenvalues --   -1.01694  -0.95886  -0.89100  -0.81745  -0.75644
 Alpha  occ. eigenvalues --   -0.72355  -0.68327  -0.65618  -0.63788  -0.61195
 Alpha  occ. eigenvalues --   -0.60033  -0.58420  -0.57106  -0.56739  -0.55631
 Alpha  occ. eigenvalues --   -0.54633  -0.52942  -0.51041  -0.50561  -0.49161
 Alpha  occ. eigenvalues --   -0.47376  -0.46763  -0.45704  -0.40004  -0.39274
 Alpha  occ. eigenvalues --   -0.38275  -0.33829
 Alpha virt. eigenvalues --   -0.00360   0.00659   0.02139   0.08256   0.09604
 Alpha virt. eigenvalues --    0.10957   0.11681   0.12015   0.12391   0.13534
 Alpha virt. eigenvalues --    0.15015   0.15724   0.16579   0.17254   0.17640

  Beta  occ. eigenvalues --   -1.19225  -1.19077  -1.12010  -1.06858  -1.03050
  Beta  occ. eigenvalues --   -0.98992  -0.95276  -0.88572  -0.80846  -0.74403
  Beta  occ. eigenvalues --   -0.71604  -0.67148  -0.64471  -0.62623  -0.60259
  Beta  occ. eigenvalues --   -0.59372  -0.57931  -0.55945  -0.55376  -0.54130
  Beta  occ. eigenvalues --   -0.53917  -0.52196  -0.50842  -0.50486  -0.47722
  Beta  occ. eigenvalues --   -0.47078  -0.45367  -0.45152  -0.39209  -0.36425
  Beta  occ. eigenvalues --   -0.34319
  Beta virt. eigenvalues --   -0.04496  -0.00051   0.01474   0.03552   0.08317
  Beta virt. eigenvalues --    0.10376   0.11439   0.11859   0.12400   0.12567
  Beta virt. eigenvalues --    0.13644   0.15024   0.16815   0.17254   0.17445

 Mulliken charges and spin densities:
               1          2
     1  O   -0.367921   0.186414
     2  C    0.363734   0.277768
     3  C   -0.417800   0.064369
     4  C   -0.209939  -0.004143
     5  C   -0.296649   0.005553
     6  C   -0.128777  -0.033806
     7  H    0.155855   0.004175
     8  C    0.563929  -0.001090
     9  O   -0.458473  -0.001018
    10  C   -0.641446  -0.002099
    11  H    0.194713  -0.136138
    12  H    0.218734  -0.002281
    13  H    0.178521   0.010156
    14  H    0.143998   0.000977
    15  H    0.139315   0.000193
    16  H    0.146499  -0.000855
    17  H    0.170278  -0.000292
    18  H    0.190741   0.000071
    19  H    0.199773   0.000058
    20  H    0.202612  -0.000008
    21  O   -0.273355   0.508895
    22  O   -0.074344   0.123102
 Sum of Mulliken charges =   0.00000   1.00000

 Dipole moment (field-independent basis, Debye):
    X=              4.0576    Y=              0.2711    Z=             -3.5400  Tot=              5.3916
 N-N= 4.027037133632D+02 E-N=-7.251464674133D+02  KE=-3.754412081907D+01
  Exact polarizability:  58.214 -15.484 112.423 -11.620  40.427 109.631
 Approx polarizability:  44.348  -9.230  61.074  -4.163  14.783  68.240
 Leave Link  601 at Thu Feb 18 23:02:14 2021, MaxMem=    33554432 cpu:         0.0
 (Enter /apps/applications/gaussian/G09.D01/2/default/g09/l701.exe)
 Compute integral second derivatives.
 ... and contract with generalized density number  0.
 Leave Link  701 at Thu Feb 18 23:02:14 2021, MaxMem=    33554432 cpu:         0.1
 (Enter /apps/applications/gaussian/G09.D01/2/default/g09/l702.exe)
 L702 exits ... SP integral derivatives will be done elsewhere.

 Optimization completed.
    -- Stationary point found.

                          Input orientation:
 ---------------------------------------------------------------------
 Center     Atomic      Atomic             Coordinates (Angstroms)
 Number     Number       Type             X           Y           Z
 ---------------------------------------------------------------------
      1          8           0       -1.119563    1.562528    3.411539
      2          6           0       -0.997146    0.983383    2.382476
      3          6           0       -0.988723    1.451641    0.968750
      4          6           0        0.419940    1.414628    0.364765
      5          6           0        1.093909    0.037353    0.421368
      6          6           0        0.292313   -1.117000   -0.174275
      7          1           0        0.905808   -2.042322   -0.209661
      8          6           0       -0.323339   -0.779685   -1.536294
      9          8           0       -1.398172   -0.241157   -1.645100
     10          6           0        0.518638   -1.167835   -2.714326
     11          1           0       -0.847149   -0.333454    2.423843
     12          1           0       -1.666730    0.795076    0.356704
     13          1           0       -1.413320    2.474736    0.895607
     14          1           0        0.352109    1.759384   -0.688679
     15          1           0        1.067271    2.152874    0.882154
     16          1           0        2.082001    0.095354   -0.078252
     17          1           0        1.313547   -0.228107    1.482438
     18          1           0        1.563942   -0.851728   -2.612751
     19          1           0        0.518539   -2.258071   -2.862334
     20          1           0        0.126966   -0.725847   -3.644589
     21          8           0       -0.602065   -1.518349    1.922517
     22          8           0       -0.898774   -1.463402    0.654100
 ---------------------------------------------------------------------

 ******    1 imaginary frequencies (negative Signs) ******

                      1                      2                      3
                      A                      A                      A
 Frequencies --  -2660.2152                35.3816                46.4550
 Red. masses --      1.1572                 3.8491                 6.3005
 Frc consts  --      4.8248                 0.0028                 0.0080
 IR Inten    --  15608.5883                 4.0103                 1.6933

                      4                      5                      6
                      A                      A                      A
 Frequencies --     84.2110                98.0298               152.2917
 Red. masses --      1.0278                 5.5671                 4.8709
 Frc consts  --      0.0043                 0.0315                 0.0666
 IR Inten    --      0.7782                 6.1831                 3.4228

                      7                      8                      9
                      A                      A                      A
 Frequencies --    173.6821               185.5407               227.3997
 Red. masses --      2.9077                 4.4946                 4.6771
 Frc consts  --      0.0517                 0.0912                 0.1425
 IR Inten    --      2.7358                 5.4368                 0.4000

                     10                     11                     12
                      A                      A                      A
 Frequencies --    292.8207               315.9693               350.0615
 Red. masses --      2.4004                 5.7418                 3.3496
 Frc consts  --      0.1213                 0.3377                 0.2418
 IR Inten    --      2.2617                 9.1553                 1.8538

                     13                     14                     15
                      A                      A                      A
 Frequencies --    372.0887               414.3246               469.5597
 Red. masses --      4.1627                 2.9553                 3.3247
 Frc consts  --      0.3396                 0.2989                 0.4319
 IR Inten    --      2.9879                 6.3021                 7.8655

                     16                     17                     18
                      A                      A                      A
 Frequencies --    541.7384               554.0621               569.5718
 Red. masses --      3.3216                 5.1596                 4.1808
 Frc consts  --      0.5743                 0.9332                 0.7991
 IR Inten    --      0.9456                 5.8464                13.6280

                     19                     20                     21
                      A                      A                      A
 Frequencies --    656.1931               799.4658               807.2014
 Red. masses --      2.8569                 1.6058                 1.5803
 Frc consts  --      0.7248                 0.6047                 0.6067
 IR Inten    --     26.7287                52.5034                 4.2385

                     22                     23                     24
                      A                      A                      A
 Frequencies --    879.7501               887.3105               965.6990
 Red. masses --      2.1952                 3.1007                 2.0803
 Frc consts  --      1.0010                 1.4383                 1.1430
 IR Inten    --     11.9967                 6.9820                 7.2493

                     25                     26                     27
                      A                      A                      A
 Frequencies --    980.0781              1003.4736              1013.8102
 Red. masses --      1.8420                 2.0246                 1.7810
 Frc consts  --      1.0425                 1.2011                 1.0785
 IR Inten    --      9.5900                44.9051                24.2993

                     28                     29                     30
                      A                      A                      A
 Frequencies --   1033.0024              1048.8048              1087.5842
 Red. masses --      2.1540                 3.7328                 1.6000
 Frc consts  --      1.3543                 2.4192                 1.1150
 IR Inten    --     53.5263                48.9012                13.3833

                     31                     32                     33
                      A                      A                      A
 Frequencies --   1115.2558              1135.5485              1163.5007
 Red. masses --      1.4085                 1.5470                 1.4215
 Frc consts  --      1.0322                 1.1753                 1.1338
 IR Inten    --     39.4658                14.3917                 6.1928

                     34                     35                     36
                      A                      A                      A
 Frequencies --   1173.8946              1177.1333              1210.7446
 Red. masses --      1.1982                 1.5702                 1.0917
 Frc consts  --      0.9728                 1.2819                 0.9429
 IR Inten    --      2.9377                80.4535                61.1411

                     37                     38                     39
                      A                      A                      A
 Frequencies --   1218.3762              1223.1838              1229.1936
 Red. masses --      1.9022                 1.0971                 1.6454
 Frc consts  --      1.6637                 0.9671                 1.4647
 IR Inten    --     18.2919                78.6725                17.3506

                     40                     41                     42
                      A                      A                      A
 Frequencies --   1250.7490              1260.1635              1267.7722
 Red. masses --      1.1474                 1.2834                 1.8300
 Frc consts  --      1.0576                 1.2008                 1.7330
 IR Inten    --     63.0305                19.5157                30.6344

                     43                     44                     45
                      A                      A                      A
 Frequencies --   1274.9479              1293.3518              1314.4831
 Red. masses --      1.2834                 1.9166                 1.4618
 Frc consts  --      1.2292                 1.8889                 1.4882
 IR Inten    --     31.6943               157.0206               135.0639

                     46                     47                     48
                      A                      A                      A
 Frequencies --   1317.4550              1334.6621              1341.8601
 Red. masses --      1.4168                 1.4324                 1.0839
 Frc consts  --      1.4488                 1.5033                 1.1499
 IR Inten    --     82.2928                19.1578                16.2810

                     49                     50                     51
                      A                      A                      A
 Frequencies --   1810.6062              1905.6083              2619.7488
 Red. masses --     11.5861                10.6235                 1.0792
 Frc consts  --     22.3787                22.7292                 4.3637
 IR Inten    --    264.1802               356.4036                66.6429

                     52                     53                     54
                      A                      A                      A
 Frequencies --   2651.2157              2667.9830              2681.2629
 Red. masses --      1.0800                 1.0884                 1.0815
 Frc consts  --      4.4728                 4.5647                 4.5809
 IR Inten    --     24.3198                84.5844                50.6845

                     55                     56                     57
                      A                      A                      A
 Frequencies --   2686.3513              2691.6801              2716.7506
 Red. masses --      1.0710                 1.0881                 1.0535
 Frc consts  --      4.5535                 4.6447                 4.5815
 IR Inten    --    128.8861               103.6407                93.7812

                     58                     59                     60
                      A                      A                      A
 Frequencies --   2731.5360              2735.0181              2787.2164
 Red. masses --      1.0501                 1.0485                 1.0315
 Frc consts  --      4.6162                 4.6212                 4.7213
 IR Inten    --     53.1588                44.9223               113.5102

 - Thermochemistry -
 -------------------
 Temperature   298.150 Kelvin.  Pressure   1.00000 Atm.
 Atom     1 has atomic number  8 and mass  15.99491

 Molecular mass:   159.06573 amu.
 Principal axes and moments of inertia in atomic units:
                           1         2         3
     Eigenvalues --   924.299492461.809762715.95571
           X           -0.17304   0.09545   0.98028
           Y            0.40175   0.91557  -0.01823
           Z            0.89925  -0.39067   0.19678
 This molecule is an asymmetric top.
 Rotational symmetry number  1.
 Warning -- assumption of classical behavior for rotation
           may cause significant error
 Rotational temperatures (Kelvin)      0.09371     0.03518     0.03189
 Rotational constants (GHZ):           1.95255     0.73310     0.66450
    1 imaginary frequencies ignored.
 Zero-point vibrational energy     412907.9 (Joules/Mol)
                                   98.68736 (Kcal/Mol)
 Warning -- explicit consideration of  17 degrees of freedom as
           vibrations may cause significant error
 Vibrational temperatures:     50.91    66.84   121.16   141.04   219.11
          (Kelvin)            249.89   266.95   327.18   421.30   454.61
                              503.66   535.35   596.12   675.59   779.44
                              797.17   819.49   944.11  1150.25  1161.38
                             1265.76  1276.64  1389.42  1410.11  1443.77
                             1458.64  1486.26  1508.99  1564.79  1604.60
                             1633.80  1674.02  1688.97  1693.63  1741.99
                             1752.97  1759.89  1768.53  1799.55  1813.09
                             1824.04  1834.36  1860.84  1891.25  1895.52
                             1920.28  1930.64  2605.06  2741.74  3769.23
                             3814.50  3838.63  3857.73  3865.06  3872.72
                             3908.79  3930.07  3935.08  4010.18

 Zero-point correction=                           0.157268 (Hartree/Particle)
 Thermal correction to Energy=                    0.169202
 Thermal correction to Enthalpy=                  0.170147
 Thermal correction to Gibbs Free Energy=         0.117756
 Sum of electronic and zero-point Energies=              0.058341
 Sum of electronic and thermal Energies=                 0.070275
 Sum of electronic and thermal Enthalpies=               0.071219
 Sum of electronic and thermal Free Energies=            0.018828

                     E (Thermal)             CV                S
                      KCal/Mol        Cal/Mol-Kelvin    Cal/Mol-Kelvin
 Total                  106.176             42.977            110.266
 Electronic               0.000              0.000              1.377
 Translational            0.889              2.981             41.102
 Rotational               0.889              2.981             30.203
 Vibrational            104.399             37.015             37.583
 Vibration     1          0.594              1.982              5.502
 Vibration     2          0.595              1.979              4.963
 Vibration     3          0.601              1.960              3.790
 Vibration     4          0.603              1.951              3.493
 Vibration     5          0.619              1.900              2.643
 Vibration     6          0.627              1.875              2.395
 Vibration     7          0.632              1.860              2.272
 Vibration     8          0.651              1.799              1.899
 Vibration     9          0.688              1.687              1.458
 Vibration    10          0.703              1.643              1.331
 Vibration    11          0.727              1.575              1.166
 Vibration    12          0.744              1.529              1.071
 Vibration    13          0.778              1.439              0.911
 Vibration    14          0.827              1.318              0.739
 Vibration    15          0.897              1.158              0.562
 Vibration    16          0.909              1.131              0.536
 Vibration    17          0.926              1.097              0.505

 Normal termination of Gaussian 09 at Thu Feb 18 23:02:14 2021.
