 Gaussian 09, Revision D.01,
 Gaussian 09:  ES64L-G09RevD.01 24-Apr-2013

 ----------------------------------------------------------------------
 #P upm6 scf=qc opt(calcall, ts, noeigentest, cartesian,maxcycle=100) N
 oSymm, guess=mix
 ----------------------------------------------------------------------

 ------------------------------
 Gaussian input prepared by ASE
 ------------------------------
 Symbolic Z-matrix:
 Charge =  0 Multiplicity = 1

 SCF Done:  E(UPM6) = -0.283072661634E-01 a.u. after   13 cycles

 Alpha  occ. eigenvalues --   -1.19155  -1.17716  -1.07012  -1.02698  -0.99559
 Alpha  occ. eigenvalues --   -0.93987  -0.89481  -0.81639  -0.74529  -0.72526
 Alpha  occ. eigenvalues --   -0.66677  -0.63459  -0.61603  -0.60804  -0.58902
 Alpha  occ. eigenvalues --   -0.55584  -0.55212  -0.54043  -0.53020  -0.52581
 Alpha  occ. eigenvalues --   -0.50333  -0.49270  -0.46803  -0.46104  -0.43288
 Alpha  occ. eigenvalues --   -0.43001  -0.37860  -0.35169  -0.33495
 Alpha virt. eigenvalues --   -0.01492   0.00794   0.02568   0.10789   0.11061
 Alpha virt. eigenvalues --    0.11877   0.12973   0.13905   0.14810   0.15745
 Alpha virt. eigenvalues --    0.16202   0.16641   0.16979   0.17112   0.17905

  Beta  occ. eigenvalues --   -1.19155  -1.17716  -1.07012  -1.02698  -0.99559
  Beta  occ. eigenvalues --   -0.93987  -0.89481  -0.81639  -0.74529  -0.72526
  Beta  occ. eigenvalues --   -0.66677  -0.63459  -0.61603  -0.60804  -0.58902
  Beta  occ. eigenvalues --   -0.55584  -0.55212  -0.54043  -0.53020  -0.52581
  Beta  occ. eigenvalues --   -0.50333  -0.49270  -0.46803  -0.46104  -0.43288
  Beta  occ. eigenvalues --   -0.43001  -0.37860  -0.35169  -0.33495
  Beta virt. eigenvalues --   -0.01492   0.00794   0.02568   0.10789   0.11061
  Beta virt. eigenvalues --    0.11877   0.12973   0.13905   0.14810   0.15745
  Beta virt. eigenvalues --    0.16202   0.16641   0.16979   0.17112   0.17905

 Mulliken charges and spin densities:
               1          2
     1  C   -0.233852   0.000000
     2  C   -0.176383   0.000000
     3  C   -0.589744   0.000000
     4  C    0.371761   0.000000
     5  C    0.408496   0.000000
     6  C   -0.445677   0.000000
     7  H    0.147023   0.000000
     8  H    0.143314   0.000000
     9  H    0.122790   0.000000
    10  H    0.130816   0.000000
    11  H    0.212161   0.000000
    12  H    0.348993   0.000000
    13  C   -0.558080   0.000000
    14  H    0.090510   0.000000
    15  H    0.167319   0.000000
    16  H    0.175985   0.000000
    17  H    0.212109   0.000000
    18  H    0.194745   0.000000
    19  H    0.199699   0.000000
    20  O   -0.463441   0.000000
    21  O   -0.519499   0.000000
    22  O    0.060956   0.000000
 Sum of Mulliken charges =   0.00000   0.00000

 Dipole moment (field-independent basis, Debye):
    X=              1.7827    Y=              4.5427    Z=              1.5279  Tot=              5.1135
 N-N= 3.316949985183D+02 E-N=-5.904673613997D+02  KE=-3.446904559640D+01
  Exact polarizability:  63.957  -5.137  76.700  13.715  10.549  62.534
 Approx polarizability:  47.820  -3.142  60.035  14.861   5.129  42.132
 Leave Link  601 at Tue Feb 16 04:42:27 2021, MaxMem=    33554432 cpu:         0.0
 (Enter /cm/shared/apps/Gaussian09/g09/l701.exe)
 Compute integral second derivatives.
 ... and contract with generalized density number  0.
 Leave Link  701 at Tue Feb 16 04:42:27 2021, MaxMem=    33554432 cpu:         0.1
 (Enter /cm/shared/apps/Gaussian09/g09/l702.exe)
 L702 exits ... SP integral derivatives will be done elsewhere.

 Optimization completed.
    -- Stationary point found.

                          Input orientation:
 ---------------------------------------------------------------------
 Center     Atomic      Atomic             Coordinates (Angstroms)
 Number     Number       Type             X           Y           Z
 ---------------------------------------------------------------------
      1          6           0        5.461667   -4.672230    0.789698
      2          6           0        6.772155   -4.579526   -0.005018
      3          6           0        6.795985   -5.534227   -1.164779
      4          6           0        5.786265   -5.483131   -2.167119
      5          6           0        4.087012   -3.476522    2.539082
      6          6           0        5.480339   -3.777807    2.033709
      7          1           0        4.600420   -4.387880    0.147075
      8          1           0        5.270218   -5.722782    1.085291
      9          1           0        6.927151   -3.540337   -0.360927
     10          1           0        7.630303   -4.800446    0.663110
     11          1           0        7.807281   -5.794572   -1.519334
     12          1           0        6.626114   -6.875586   -0.962608
     13          6           0        4.954004   -4.380215   -2.666567
     14          1           0        4.022254   -3.211502    3.607261
     15          1           0        6.093565   -4.242072    2.830489
     16          1           0        5.979497   -2.810472    1.807449
     17          1           0        4.380583   -3.915536   -1.838964
     18          1           0        4.222120   -4.698469   -3.427397
     19          1           0        5.569328   -3.577805   -3.107981
     20          8           0        3.103928   -3.499364    1.833313
     21          8           0        6.182814   -7.656283   -2.084372
     22          8           0        5.442890   -6.691713   -2.668613
 ---------------------------------------------------------------------

 ******    1 imaginary frequencies (negative Signs) ******

                      1                      2                      3
                      A                      A                      A
 Frequencies --  -1375.9653                 9.4707                43.4781
 Red. masses --      1.1800                 3.6827                 3.4558
 Frc consts  --      1.3163                 0.0002                 0.0038
 IR Inten    --    547.7528                 9.7272                 5.8087

                      4                      5                      6
                      A                      A                      A
 Frequencies --     49.8732                72.4316                79.0894
 Red. masses --      2.9713                 3.5429                 1.9190
 Frc consts  --      0.0044                 0.0110                 0.0071
 IR Inten    --      4.4342                 1.8669                 5.1079

                      7                      8                      9
                      A                      A                      A
 Frequencies --     99.7998               188.8598               198.9907
 Red. masses --      1.0607                 4.0518                 2.2795
 Frc consts  --      0.0062                 0.0851                 0.0532
 IR Inten    --      0.5183                 7.0774                 5.9700

                     10                     11                     12
                      A                      A                      A
 Frequencies --    261.8724               299.7814               356.1984
 Red. masses --      4.7238                 4.1990                 3.3523
 Frc consts  --      0.1909                 0.2223                 0.2506
 IR Inten    --      0.7803                 2.0923                 1.8010

                     13                     14                     15
                      A                      A                      A
 Frequencies --    376.0239               497.2421               597.5298
 Red. masses --      3.2851                 3.0019                 3.2826
 Frc consts  --      0.2737                 0.4373                 0.6905
 IR Inten    --      1.2242                18.2922                17.2892

                     16                     17                     18
                      A                      A                      A
 Frequencies --    606.3055               681.6167               731.0347
 Red. masses --      3.6374                 6.9995                 1.2174
 Frc consts  --      0.7878                 1.9160                 0.3833
 IR Inten    --     17.4427                 3.8802                45.0406

                     19                     20                     21
                      A                      A                      A
 Frequencies --    805.1587               824.9773               909.9549
 Red. masses --      1.4656                 1.6135                 2.4320
 Frc consts  --      0.5598                 0.6470                 1.1864
 IR Inten    --     13.7211                56.6308                 4.7068

                     22                     23                     24
                      A                      A                      A
 Frequencies --    936.0514               967.9870               989.2753
 Red. masses --      1.7795                 1.4187                 1.4145
 Frc consts  --      0.9186                 0.7832                 0.8156
 IR Inten    --     40.2393                 6.2143                28.9074

                     25                     26                     27
                      A                      A                      A
 Frequencies --   1019.5733              1036.6835              1056.1337
 Red. masses --      2.8202                 1.6247                 1.9225
 Frc consts  --      1.7273                 1.0287                 1.2634
 IR Inten    --    174.9126                33.6054                14.3512

                     28                     29                     30
                      A                      A                      A
 Frequencies --   1065.3286              1100.7974              1123.8645
 Red. masses --      2.0452                 1.8265                 1.3612
 Frc consts  --      1.3676                 1.3040                 1.0130
 IR Inten    --    105.5191                54.0174                30.9023

                     31                     32                     33
                      A                      A                      A
 Frequencies --   1160.0052              1164.5440              1183.4262
 Red. masses --      1.8804                 1.3301                 1.1424
 Frc consts  --      1.4908                 1.0628                 0.9426
 IR Inten    --      1.9394                17.4428                 0.3278

                     34                     35                     36
                      A                      A                      A
 Frequencies --   1199.7917              1205.7737              1211.3345
 Red. masses --      1.0722                 1.4371                 1.0698
 Frc consts  --      0.9094                 1.2311                 0.9248
 IR Inten    --     79.7465                 2.2077                65.6801

                     37                     38                     39
                      A                      A                      A
 Frequencies --   1237.5913              1261.7025              1272.2013
 Red. masses --      1.1205                 1.2876                 1.1370
 Frc consts  --      1.0112                 1.2077                 1.0842
 IR Inten    --     55.6591                98.1656                19.8913

                     40                     41                     42
                      A                      A                      A
 Frequencies --   1280.5576              1285.7773              1301.0999
 Red. masses --      1.3395                 1.5562                 1.2709
 Frc consts  --      1.2942                 1.5158                 1.2676
 IR Inten    --     44.3961                10.4925                25.1843

                     43                     44                     45
                      A                      A                      A
 Frequencies --   1314.5074              1318.0618              1334.7878
 Red. masses --      1.4626                 1.4425                 1.9613
 Frc consts  --      1.4890                 1.4766                 2.0588
 IR Inten    --     15.0882               121.4371                 6.5774

                     46                     47                     48
                      A                      A                      A
 Frequencies --   1393.1340              1570.2256              1791.7482
 Red. masses --      7.1086                 6.4199                10.9945
 Frc consts  --      8.1287                 9.3262                20.7960
 IR Inten    --    271.6143               296.2279               230.8902

                     49                     50                     51
                      A                      A                      A
 Frequencies --   1985.5923              2643.6180              2646.6903
 Red. masses --      1.0675                 1.0701                 1.0765
 Frc consts  --      2.4797                 4.4063                 4.4428
 IR Inten    --    119.1883                 2.7537                21.9070

                     52                     53                     54
                      A                      A                      A
 Frequencies --   2655.1541              2665.8560              2677.3273
 Red. masses --      1.0835                 1.0830                 1.0896
 Frc consts  --      4.5003                 4.5349                 4.6017
 IR Inten    --    119.9613                19.2225               114.2599

                     55                     56                     57
                      A                      A                      A
 Frequencies --   2679.9156              2716.0132              2728.9903
 Red. masses --      1.0875                 1.0664                 1.0414
 Frc consts  --      4.6018                 4.6348                 4.5694
 IR Inten    --    110.8049               152.5097                12.7210

                     58                     59                     60
                      A                      A                      A
 Frequencies --   2739.1528              2747.5509              2770.4854
 Red. masses --      1.0492                 1.0578                 1.0321
 Frc consts  --      4.6381                 4.7048                 4.6675
 IR Inten    --      4.9315               100.0060                92.1448

 - Thermochemistry -
 -------------------
 Temperature   298.150 Kelvin.  Pressure   1.00000 Atm.
 Atom     1 has atomic number  6 and mass  12.00000

 Molecular mass:   144.07864 amu.
 Principal axes and moments of inertia in atomic units:
                           1         2         3
     Eigenvalues --   784.622463151.273633365.71921
           X           -0.29735   0.83602   0.46114
           Y            0.51235  -0.26783   0.81594
           Z            0.80566   0.47888  -0.34870
 This molecule is an asymmetric top.
 Rotational symmetry number  1.
 Warning -- assumption of classical behavior for rotation
           may cause significant error
 Rotational temperatures (Kelvin)      0.11039     0.02749     0.02573
 Rotational constants (GHZ):           2.30014     0.57270     0.53621
    1 imaginary frequencies ignored.
 Zero-point vibrational energy     431421.2 (Joules/Mol)
                                  103.11215 (Kcal/Mol)
 Warning -- explicit consideration of  15 degrees of freedom as
           vibrations may cause significant error
 Vibrational temperatures:     13.63    62.56    71.76   104.21   113.79
          (Kelvin)            143.59   271.73   286.30   376.78   431.32
                              512.49   541.01   715.42   859.71   872.34
                              980.69  1051.79  1158.44  1186.96  1309.22
                             1346.77  1392.72  1423.34  1466.94  1491.55
                             1519.54  1532.77  1583.80  1616.99  1668.99
                             1675.52  1702.68  1726.23  1734.84  1742.84
                             1780.62  1815.31  1830.41  1842.43  1849.94
                             1871.99  1891.28  1896.39  1920.46  2004.41
                             2259.20  2577.92  2856.82  3803.57  3807.99
                             3820.17  3835.57  3852.07  3855.80  3907.73
                             3926.40  3941.02  3953.11  3986.11

 Zero-point correction=                           0.164320 (Hartree/Particle)
 Thermal correction to Energy=                    0.176267
 Thermal correction to Enthalpy=                  0.177211
 Thermal correction to Gibbs Free Energy=         0.122839
 Sum of electronic and zero-point Energies=              0.136012
 Sum of electronic and thermal Energies=                 0.147960
 Sum of electronic and thermal Enthalpies=               0.148904
 Sum of electronic and thermal Free Energies=            0.094532

                     E (Thermal)             CV                S
                      KCal/Mol        Cal/Mol-Kelvin    Cal/Mol-Kelvin
 Total                  110.609             40.670            114.435
 Electronic               0.000              0.000              0.000
 Translational            0.889              2.981             40.807
 Rotational               0.889              2.981             30.499
 Vibrational            108.832             34.708             43.129
 Vibration     1          0.593              1.987              8.119
 Vibration     2          0.595              1.980              5.094
 Vibration     3          0.595              1.978              4.822
 Vibration     4          0.599              1.967              4.086
 Vibration     5          0.600              1.963              3.913
 Vibration     6          0.604              1.949              3.458
 Vibration     7          0.633              1.855              2.239
 Vibration     8          0.637              1.841              2.142
 Vibration     9          0.669              1.743              1.649
 Vibration    10          0.692              1.674              1.418
 Vibration    11          0.732              1.563              1.139
 Vibration    12          0.747              1.521              1.055
 Vibration    13          0.853              1.256              0.665
 Vibration    14          0.955              1.037              0.454
 Vibration    15          0.965              1.018              0.439

 Normal termination of Gaussian 09 at Tue Feb 16 04:42:27 2021.
