 Gaussian 09, Revision D.01,
 Gaussian 09:  ES64L-G09RevD.01 24-Apr-2013

 ----------------------------------------------------------------------
 #P b3lyp/3-21G scf=qc opt(calcall, ts, noeigentest, cartesian,maxcycle
 =100) NoSymm
 ----------------------------------------------------------------------

 ------------------------------
 Gaussian input prepared by ASE
 ------------------------------
 Symbolic Z-matrix:
 Charge =  0 Multiplicity = 2

 SCF Done:  E(UB3LYP) =  -191.324522933     a.u. after   10 cycles
 SCF Done:  E(UB3LYP) =  -191.327613833     a.u. after    8 cycles
 SCF Done:  E(UB3LYP) =  -191.328589059     a.u. after    9 cycles
 SCF Done:  E(UB3LYP) =  -191.329109056     a.u. after   10 cycles
 SCF Done:  E(UB3LYP) =  -191.329110736     a.u. after    6 cycles
 SCF Done:  E(UB3LYP) =  -191.329150370     a.u. after    3 cycles
 SCF Done:  E(UB3LYP) =  -191.329150871     a.u. after    3 cycles
 SCF Done:  E(UB3LYP) =  -191.329150907     a.u. after    2 cycles
 Optimization completed.
    -- Stationary point found.

                          Input orientation:
 ---------------------------------------------------------------------
 Center     Atomic      Atomic             Coordinates (Angstroms)
 Number     Number       Type             X           Y           Z
 ---------------------------------------------------------------------
      1          6           0       -7.175975    0.383386    2.037172
      2          6           0       -7.502178    0.704736    0.682246
      3          1           0       -6.107035    0.436621    2.260837
      4          1           0       -7.601217   -0.566247    2.378057
      5          1           0       -7.717621    1.189470    2.809769
      6          6           0       -7.795809    1.015154   -0.450813
      7          1           0       -8.052301    1.274885   -1.447736
      8          8           0       -7.935072    2.028005    3.776249
      9          1           0       -7.266514    2.752672    3.562006
 ---------------------------------------------------------------------

 Alpha  occ. eigenvalues --  -19.03990 -10.15620 -10.14110 -10.13151  -0.96948
 Alpha  occ. eigenvalues --   -0.79447  -0.71916  -0.54439  -0.49398  -0.46705
 Alpha  occ. eigenvalues --   -0.44939  -0.40076  -0.32275  -0.28202  -0.27747
 Alpha  occ. eigenvalues --   -0.24661
 Alpha virt. eigenvalues --    0.04919   0.06303   0.10392   0.13485   0.15802
 Alpha virt. eigenvalues --    0.19950   0.26382   0.30929   0.48199   0.67315
 Alpha virt. eigenvalues --    0.69146   0.69917   0.77233   0.78990   0.84810

  Beta  occ. eigenvalues --  -19.02432 -10.15003 -10.14245 -10.12873  -0.92739
  Beta  occ. eigenvalues --   -0.78734  -0.70758  -0.53999  -0.47766  -0.45451
  Beta  occ. eigenvalues --   -0.44231  -0.37316  -0.28122  -0.27995  -0.25835
  Beta virt. eigenvalues --   -0.12529   0.05027   0.07377   0.11155   0.13817
  Beta virt. eigenvalues --    0.16302   0.20421   0.26843   0.33199   0.48576
  Beta virt. eigenvalues --    0.67618   0.69347   0.70558   0.77979   0.80188

 Mulliken charges and spin densities:
               1          2
     1  C   -0.729233   0.403477
     2  C    0.120990  -0.142257
     3  H    0.234531  -0.017266
     4  H    0.252989  -0.011344
     5  H    0.362128  -0.081486
     6  C   -0.342147   0.231261
     7  H    0.250148  -0.009331
     8  O   -0.461103   0.649803
     9  H    0.311697  -0.022859
 Sum of Mulliken charges =   0.00000   1.00000

 Dipole moment (field-independent basis, Debye):
    X=              1.3626    Y=              0.3377    Z=             -0.9937  Tot=              1.7199
 Quadrupole moment (field-independent basis, Debye-Ang):
   XX=            -45.6123   YY=            -21.2693   ZZ=            -27.5872
   XY=              0.3511   XZ=             13.7684   YZ=             -1.4376

  Exact polarizability:  20.330  -1.801  30.538   2.318   9.544  72.090
 Approx polarizability:  27.107  -3.932  38.261   4.014   8.604 119.513

 ******    1 imaginary frequencies (negative Signs) ******

                      1                      2                      3
                      A                      A                      A
 Frequencies --   -907.1299                86.9177               162.8810
 Red. masses --      1.1827                 2.4841                 1.3732
 Frc consts  --      0.5734                 0.0111                 0.0215
 IR Inten    --    879.0366                 8.4350                91.7575

                      4                      5                      6
                      A                      A                      A
 Frequencies --    341.2654               389.3271               399.6801
 Red. masses --      1.7004                 2.0136                 2.4700
 Frc consts  --      0.1167                 0.1798                 0.2325
 IR Inten    --      7.4093                13.5304                23.3697

                      7                      8                      9
                      A                      A                      A
 Frequencies --    627.3791               701.0331               717.0743
 Red. masses --      2.3669                 1.3192                 1.2784
 Frc consts  --      0.5489                 0.3820                 0.3873
 IR Inten    --    159.3489                68.0466                53.4409

                     10                     11                     12
                      A                      A                      A
 Frequencies --    854.9628               988.3177              1080.1892
 Red. masses --      1.2391                 4.0101                 1.4559
 Frc consts  --      0.5336                 2.3078                 1.0009
 IR Inten    --    105.8975                16.2489                13.3011

                     13                     14                     15
                      A                      A                      A
 Frequencies --   1139.2673              1360.4212              1502.2169
 Red. masses --      1.2528                 1.0840                 1.0975
 Frc consts  --      0.9580                 1.1820                 1.4593
 IR Inten    --      9.9145                30.3925                 6.0352

                     16                     17                     18
                      A                      A                      A
 Frequencies --   1560.1039              2202.4708              3083.1510
 Red. masses --      1.0379                 5.7150                 1.0529
 Frc consts  --      1.4884                16.3338                 5.8967
 IR Inten    --    130.6344                17.1340                 5.0555

                     19                     20                     21
                      A                      A                      A
 Frequencies --   3143.9115              3364.1811              3494.0328
 Red. masses --      1.1044                 1.0656                 1.1597
 Frc consts  --      6.4315                 7.1058                 8.3414
 IR Inten    --      4.0754                 8.2855                45.6805

 - Thermochemistry -
 -------------------
 Temperature   298.150 Kelvin.  Pressure   1.00000 Atm.
 Atom     1 has atomic number  6 and mass  12.00000

 Molecular mass:    57.03404 amu.
 Principal axes and moments of inertia in atomic units:
                           1         2         3
     Eigenvalues --    90.22041 592.91596 665.26105
           X           -0.03275  -0.46767   0.88330
           Y            0.25904   0.84960   0.45943
           Z            0.96531  -0.24386  -0.09333
 This molecule is an asymmetric top.
 Rotational symmetry number  1.
 Rotational temperatures (Kelvin)      0.96002     0.14608     0.13020
 Rotational constants (GHZ):          20.00369     3.04384     2.71283
    1 imaginary frequencies ignored.
 Zero-point vibrational energy     162684.9 (Joules/Mol)
                                   38.88261 (Kcal/Mol)
 Warning -- explicit consideration of   5 degrees of freedom as
           vibrations may cause significant error
 Vibrational temperatures:    125.06   234.35   491.00   560.15   575.05
          (Kelvin)            902.66  1008.63  1031.71  1230.10  1421.97
                             1554.15  1639.15  1957.34  2161.35  2244.64
                             3168.86  4435.96  4523.38  4840.30  5027.13

 Zero-point correction=                           0.061963 (Hartree/Particle)
 Thermal correction to Energy=                    0.067710
 Thermal correction to Enthalpy=                  0.068654
 Thermal correction to Gibbs Free Energy=         0.032857
 Sum of electronic and zero-point Energies=           -191.267188
 Sum of electronic and thermal Energies=              -191.261441
 Sum of electronic and thermal Enthalpies=            -191.260497
 Sum of electronic and thermal Free Energies=         -191.296294

                     E (Thermal)             CV                S
                      KCal/Mol        Cal/Mol-Kelvin    Cal/Mol-Kelvin
 Total                   42.489             18.725             75.342
 Electronic               0.000              0.000              1.377
 Translational            0.889              2.981             38.044
 Rotational               0.889              2.981             25.079
 Vibrational             40.711             12.763             10.842
 Vibration     1          0.601              1.958              3.728
 Vibration     2          0.623              1.888              2.516
 Vibration     3          0.721              1.593              1.206
 Vibration     4          0.757              1.493              1.003
 Vibration     5          0.766              1.471              0.964

 Normal termination of Gaussian 09 at Tue Jan  5 14:28:13 2021.
