 Gaussian 09, Revision D.01,
 Gaussian 09:  ES64L-G09RevD.01 24-Apr-2013

 ----------------------------------------------------------------------
 #P pm6 scf=qc opt(calcall, ts, noeigentest, cartesian,maxcycle=100) No
 Symm
 ----------------------------------------------------------------------

 ------------------------------
 Gaussian input prepared by ASE
 ------------------------------
 Symbolic Z-matrix:
 Charge =  0 Multiplicity = 2

 SCF Done:  E(UPM6) = -0.104392595708     a.u. after    9 cycles

 Alpha  occ. eigenvalues --   -1.22147  -1.18084  -1.15246  -1.08082  -1.07273
 Alpha  occ. eigenvalues --   -0.99984  -0.96772  -0.89363  -0.81510  -0.76050
 Alpha  occ. eigenvalues --   -0.73914  -0.67623  -0.66016  -0.64797  -0.61068
 Alpha  occ. eigenvalues --   -0.60449  -0.58509  -0.58028  -0.57182  -0.54792
 Alpha  occ. eigenvalues --   -0.53504  -0.52881  -0.50868  -0.49722  -0.48864
 Alpha  occ. eigenvalues --   -0.47518  -0.47306  -0.46085  -0.41745  -0.40146
 Alpha  occ. eigenvalues --   -0.37686  -0.34792
 Alpha virt. eigenvalues --   -0.00250   0.00738   0.01144   0.08781   0.08894
 Alpha virt. eigenvalues --    0.10065   0.11419   0.11588   0.13100   0.13323
 Alpha virt. eigenvalues --    0.14660   0.15542   0.16272   0.17052   0.17643

  Beta  occ. eigenvalues --   -1.20221  -1.18072  -1.13073  -1.07193  -1.02329
  Beta  occ. eigenvalues --   -0.98487  -0.96200  -0.88887  -0.80404  -0.74888
  Beta  occ. eigenvalues --   -0.73123  -0.66276  -0.65022  -0.63229  -0.60373
  Beta  occ. eigenvalues --   -0.59704  -0.57981  -0.56423  -0.55755  -0.54304
  Beta  occ. eigenvalues --   -0.52703  -0.51870  -0.50117  -0.48942  -0.48422
  Beta  occ. eigenvalues --   -0.47307  -0.46526  -0.45695  -0.39157  -0.37277
  Beta  occ. eigenvalues --   -0.34993
  Beta virt. eigenvalues --   -0.05646   0.00536   0.01079   0.02616   0.08859
  Beta virt. eigenvalues --    0.09938   0.10645   0.11583   0.11724   0.13232
  Beta virt. eigenvalues --    0.13359   0.15630   0.16104   0.16584   0.17231

 Mulliken charges and spin densities:
               1          2
     1  O   -0.361069   0.181403
     2  C    0.366627   0.265838
     3  C   -0.410926   0.064443
     4  C   -0.211157  -0.004120
     5  C   -0.300005   0.005339
     6  C   -0.112939  -0.033523
     7  H    0.171132  -0.001957
     8  C    0.549085   0.004489
     9  O   -0.480971   0.001348
    10  C   -0.623000   0.001725
    11  H    0.193022  -0.132238
    12  H    0.178129   0.009245
    13  H    0.189261  -0.002207
    14  H    0.143956   0.000187
    15  H    0.144036   0.000992
    16  H    0.163047  -0.000337
    17  H    0.171377  -0.000756
    18  H    0.201258  -0.000081
    19  H    0.211558  -0.000527
    20  H    0.195197   0.000089
    21  O   -0.283528   0.523442
    22  O   -0.094089   0.117206
 Sum of Mulliken charges =   0.00000   1.00000

 Dipole moment (field-independent basis, Debye):
    X=              0.1267    Y=              1.9828    Z=             -1.1477  Tot=              2.2945
 N-N= 3.986098837819D+02 E-N=-7.169492351508D+02  KE=-3.744967747519D+01
  Exact polarizability:  67.238   0.264 107.000  16.117  53.906 113.242
 Approx polarizability:  51.099  -1.766  53.584  11.365  17.649  69.022
 Leave Link  601 at Wed Feb 17 08:21:14 2021, MaxMem=    33554432 cpu:         0.0
 (Enter /cm/shared/apps/Gaussian09/g09/l701.exe)
 Compute integral second derivatives.
 ... and contract with generalized density number  0.
 Leave Link  701 at Wed Feb 17 08:21:14 2021, MaxMem=    33554432 cpu:         0.1
 (Enter /cm/shared/apps/Gaussian09/g09/l702.exe)
 L702 exits ... SP integral derivatives will be done elsewhere.

 Optimization completed.
    -- Stationary point found.

                          Input orientation:
 ---------------------------------------------------------------------
 Center     Atomic      Atomic             Coordinates (Angstroms)
 Number     Number       Type             X           Y           Z
 ---------------------------------------------------------------------
      1          8           0        1.155529    1.843327    2.968748
      2          6           0        0.983026    1.527173    1.837875
      3          6           0        0.344743    2.242358    0.692521
      4          6           0       -1.052022    1.683085    0.390482
      5          6           0       -1.096277    0.163584    0.198252
      6          6           0       -0.192303   -0.353005   -0.914999
      7          1           0       -0.223465    0.283034   -1.830279
      8          6           0       -0.553404   -1.805227   -1.277536
      9          8           0       -1.670178   -2.057333   -1.668999
     10          6           0        0.524025   -2.823879   -1.131200
     11          1           0        1.411442    0.348282    1.444727
     12          1           0        0.283609    3.330916    0.904817
     13          1           0        0.995302    2.134538   -0.207183
     14          1           0       -1.746292    1.959608    1.212279
     15          1           0       -1.446512    2.188658   -0.515462
     16          1           0       -0.826500   -0.353954    1.144897
     17          1           0       -2.145737   -0.144046   -0.017801
     18          1           0        1.362469   -2.628601   -1.816980
     19          1           0        0.962670   -2.801309   -0.117287
     20          1           0        0.156010   -3.840752   -1.325584
     21          8           0        1.533248   -0.669327    0.613427
     22          8           0        1.240618   -0.227129   -0.584712
 ---------------------------------------------------------------------

 ******    1 imaginary frequencies (negative Signs) ******

                      1                      2                      3
                      A                      A                      A
 Frequencies --  -2612.0646                25.4204                43.8519
 Red. masses --      1.1578                 4.3935                 7.2257
 Frc consts  --      4.6545                 0.0017                 0.0082
 IR Inten    --  17157.5566                10.8012                 1.1157

                      4                      5                      6
                      A                      A                      A
 Frequencies --     87.5832               105.3960               142.1107
 Red. masses --      1.9619                 1.5520                 2.7573
 Frc consts  --      0.0089                 0.0102                 0.0328
 IR Inten    --      1.3111                 2.1925                 1.9721

                      7                      8                      9
                      A                      A                      A
 Frequencies --    191.1956               210.1434               225.1896
 Red. masses --      3.6509                 4.3280                 4.1536
 Frc consts  --      0.0786                 0.1126                 0.1241
 IR Inten    --      6.7997                 6.7619                 3.4306

                     10                     11                     12
                      A                      A                      A
 Frequencies --    276.1999               314.1877               343.8291
 Red. masses --      2.7691                 5.0432                 3.1855
 Frc consts  --      0.1245                 0.2933                 0.2219
 IR Inten    --      1.6641                 5.4574                 8.6017

                     13                     14                     15
                      A                      A                      A
 Frequencies --    408.7154               412.3171               454.6611
 Red. masses --      3.5142                 4.3442                 3.0751
 Frc consts  --      0.3459                 0.4351                 0.3745
 IR Inten    --      1.0264                 6.1016                12.4667

                     16                     17                     18
                      A                      A                      A
 Frequencies --    516.6364               551.3347               572.3424
 Red. masses --      2.8106                 5.2744                 3.5793
 Frc consts  --      0.4420                 0.9446                 0.6908
 IR Inten    --     22.0705                 4.4314                11.1520

                     19                     20                     21
                      A                      A                      A
 Frequencies --    661.1944               799.5422               804.8810
 Red. masses --      3.2337                 1.5979                 1.5430
 Frc consts  --      0.8329                 0.6018                 0.5889
 IR Inten    --      5.8550                 2.1018                45.4191

                     22                     23                     24
                      A                      A                      A
 Frequencies --    852.8376               916.6863               969.6799
 Red. masses --      3.2539                 2.2027                 1.7944
 Frc consts  --      1.3944                 1.0906                 0.9941
 IR Inten    --      2.4342                13.8022                15.1007

                     25                     26                     27
                      A                      A                      A
 Frequencies --    986.0606               998.0901              1008.1998
 Red. masses --      2.2814                 2.0175                 1.6942
 Frc consts  --      1.3069                 1.1841                 1.0147
 IR Inten    --      1.0869                48.8561                17.1552

                     28                     29                     30
                      A                      A                      A
 Frequencies --   1022.1670              1046.5052              1088.8590
 Red. masses --      2.1750                 3.1479                 1.2383
 Frc consts  --      1.3389                 2.0312                 0.8650
 IR Inten    --     36.2278                42.8345                13.4483

                     31                     32                     33
                      A                      A                      A
 Frequencies --   1102.5202              1130.9196              1159.9703
 Red. masses --      1.6782                 2.0847                 1.2453
 Frc consts  --      1.2019                 1.5709                 0.9872
 IR Inten    --      1.4970                20.1582                15.7573

                     34                     35                     36
                      A                      A                      A
 Frequencies --   1178.9740              1183.0686              1194.8325
 Red. masses --      1.4597                 1.3559                 1.1024
 Frc consts  --      1.1954                 1.1182                 0.9273
 IR Inten    --      9.6192                 2.0332                56.9195

                     37                     38                     39
                      A                      A                      A
 Frequencies --   1215.3750              1221.0272              1246.1510
 Red. masses --      1.6347                 1.0836                 2.5694
 Frc consts  --      1.4227                 0.9518                 2.3508
 IR Inten    --     28.1777                74.5613               132.4061

                     40                     41                     42
                      A                      A                      A
 Frequencies --   1252.9789              1258.2820              1262.2144
 Red. masses --      1.2118                 1.7406                 1.4187
 Frc consts  --      1.1209                 1.6237                 1.3317
 IR Inten    --     88.8920                56.6571                41.5176

                     43                     44                     45
                      A                      A                      A
 Frequencies --   1263.8213              1276.2540              1309.6617
 Red. masses --      1.7461                 1.1515                 1.6131
 Frc consts  --      1.6432                 1.1051                 1.6302
 IR Inten    --     53.5510                35.4241                40.6769

                     46                     47                     48
                      A                      A                      A
 Frequencies --   1315.7066              1334.1188              1343.5493
 Red. masses --      1.2641                 1.4263                 1.0805
 Frc consts  --      1.2893                 1.4957                 1.1492
 IR Inten    --    180.5730                 5.2514                22.5764

                     49                     50                     51
                      A                      A                      A
 Frequencies --   1801.4575              1905.8359              2648.0535
 Red. masses --     12.0996                10.6136                 1.0795
 Frc consts  --     23.1350                22.7134                 4.4599
 IR Inten    --    377.7380               331.6876                19.1111

                     52                     53                     54
                      A                      A                      A
 Frequencies --   2654.0597              2667.8094              2668.5913
 Red. masses --      1.0827                 1.0873                 1.0852
 Frc consts  --      4.4935                 4.5592                 4.5533
 IR Inten    --     48.8903                 6.5390               184.5637

                     55                     56                     57
                      A                      A                      A
 Frequencies --   2686.5409              2692.9987              2726.7466
 Red. masses --      1.0644                 1.0892                 1.0493
 Frc consts  --      4.5264                 4.6542                 4.5965
 IR Inten    --     97.3931               121.2195                94.6436

                     58                     59                     60
                      A                      A                      A
 Frequencies --   2727.6481              2736.1546              2781.7643
 Red. masses --      1.0510                 1.0502                 1.0316
 Frc consts  --      4.6071                 4.6323                 4.7034
 IR Inten    --     73.3805                52.3175                83.5075

 - Thermochemistry -
 -------------------
 Temperature   298.150 Kelvin.  Pressure   1.00000 Atm.
 Atom     1 has atomic number  8 and mass  15.99491

 Molecular mass:   159.06573 amu.
 Principal axes and moments of inertia in atomic units:
                           1         2         3
     Eigenvalues --   865.503362665.034343152.78525
           X            0.23284   0.86435  -0.44574
           Y            0.75212  -0.45060  -0.48091
           Z            0.61653   0.22328   0.75501
 This molecule is an asymmetric top.
 Rotational symmetry number  1.
 Warning -- assumption of classical behavior for rotation
           may cause significant error
 Rotational temperatures (Kelvin)      0.10007     0.03250     0.02747
 Rotational constants (GHZ):           2.08519     0.67719     0.57243
    1 imaginary frequencies ignored.
 Zero-point vibrational energy     412609.4 (Joules/Mol)
                                   98.61601 (Kcal/Mol)
 Warning -- explicit consideration of  17 degrees of freedom as
           vibrations may cause significant error
 Vibrational temperatures:     36.57    63.09   126.01   151.64   204.47
          (Kelvin)            275.09   302.35   324.00   397.39   452.05
                              494.69   588.05   593.23   654.16   743.32
                              793.25   823.47   951.31  1150.36  1158.04
                             1227.04  1318.91  1395.15  1418.72  1436.03
                             1450.57  1470.67  1505.69  1566.62  1586.28
                             1627.14  1668.94  1696.28  1702.17  1719.10
                             1748.65  1756.78  1792.93  1802.75  1810.38
                             1816.04  1818.35  1836.24  1884.31  1893.01
                             1919.50  1933.07  2591.89  2742.07  3809.95
                             3818.60  3838.38  3839.50  3865.33  3874.62
                             3923.18  3924.47  3936.71  4002.33

 Zero-point correction=                           0.157155 (Hartree/Particle)
 Thermal correction to Energy=                    0.169078
 Thermal correction to Enthalpy=                  0.170022
 Thermal correction to Gibbs Free Energy=         0.117362
 Sum of electronic and zero-point Energies=              0.052762
 Sum of electronic and thermal Energies=                 0.064685
 Sum of electronic and thermal Enthalpies=               0.065629
 Sum of electronic and thermal Free Energies=            0.012969

                     E (Thermal)             CV                S
                      KCal/Mol        Cal/Mol-Kelvin    Cal/Mol-Kelvin
 Total                  106.098             43.030            110.832
 Electronic               0.000              0.000              1.377
 Translational            0.889              2.981             41.102
 Rotational               0.889              2.981             30.365
 Vibrational            104.320             37.068             37.988
 Vibration     1          0.593              1.985              6.158
 Vibration     2          0.595              1.980              5.077
 Vibration     3          0.601              1.958              3.713
 Vibration     4          0.605              1.945              3.352
 Vibration     5          0.616              1.911              2.775
 Vibration     6          0.634              1.852              2.216
 Vibration     7          0.642              1.825              2.042
 Vibration     8          0.650              1.803              1.917
 Vibration     9          0.678              1.717              1.557
 Vibration    10          0.702              1.647              1.340
 Vibration    11          0.723              1.588              1.194
 Vibration    12          0.773              1.451              0.931
 Vibration    13          0.776              1.443              0.918
 Vibration    14          0.813              1.351              0.782
 Vibration    15          0.872              1.213              0.618
 Vibration    16          0.907              1.137              0.541
 Vibration    17          0.929              1.091              0.500

 Normal termination of Gaussian 09 at Wed Feb 17 08:21:14 2021.
