 Gaussian 09, Revision D.01,
 Gaussian 09:  ES64L-G09RevD.01 24-Apr-2013

 ----------------------------------------------------------------------
 #P b3lyp/3-21G scf=qc opt(calcall, ts, noeigentest, cartesian,maxcycle
 =100) NoSymm
 ----------------------------------------------------------------------

 ------------------------------
 Gaussian input prepared by ASE
 ------------------------------
 Symbolic Z-matrix:
 Charge =  0 Multiplicity = 2

 SCF Done:  E(UB3LYP) =  -191.310344695     a.u. after    9 cycles

 Alpha  occ. eigenvalues --  -19.09219 -10.18805 -10.13227 -10.11510  -1.07714
 Alpha  occ. eigenvalues --   -0.75327  -0.69023  -0.59638  -0.51144  -0.43777
 Alpha  occ. eigenvalues --   -0.42702  -0.41496  -0.38983  -0.29524  -0.24073
 Alpha  occ. eigenvalues --   -0.19471
 Alpha virt. eigenvalues --    0.04805   0.07898   0.09142   0.13995   0.15870
 Alpha virt. eigenvalues --    0.18650   0.19385   0.27900   0.54065   0.66016
 Alpha virt. eigenvalues --    0.66033   0.72523   0.74942   0.78301   0.81561

  Beta  occ. eigenvalues --  -19.09175 -10.19050 -10.12035 -10.10952  -1.07618
  Beta  occ. eigenvalues --   -0.74427  -0.65920  -0.59338  -0.50645  -0.43517
  Beta  occ. eigenvalues --   -0.41921  -0.40654  -0.38971  -0.26796  -0.23649
  Beta virt. eigenvalues --   -0.06649   0.05887   0.09257   0.09349   0.14825
  Beta virt. eigenvalues --    0.16597   0.19438   0.20118   0.28093   0.54691
  Beta virt. eigenvalues --    0.66371   0.67087   0.75067   0.77094   0.79050

 Mulliken charges and spin densities:
               1          2
     1  C   -0.615154   0.890135
     2  C    0.199492  -0.187646
     3  H    0.184297  -0.036188
     4  H    0.205461  -0.042198
     5  H    0.184358  -0.036190
     6  C   -0.174463   0.414248
     7  H    0.231715  -0.021080
     8  O   -0.597217   0.012243
     9  H    0.381512   0.006675
 Sum of Mulliken charges =   0.00000   1.00000

 Dipole moment (field-independent basis, Debye):
    X=              0.7636    Y=             -1.7997    Z=              0.5700  Tot=              2.0364
 Quadrupole moment (field-independent basis, Debye-Ang):
   XX=            -27.3144   YY=            -42.6081   ZZ=            -23.4439
   XY=              7.9472   XZ=             -4.3687   YZ=              4.2064

  Exact polarizability:  34.227 -13.628  37.047  -9.745   0.451  29.404
 Approx polarizability:  56.746 -26.042  51.620 -23.497   6.605  44.963

 Optimization completed.
    -- Stationary point found.

                          Input orientation:
 ---------------------------------------------------------------------
 Center     Atomic      Atomic             Coordinates (Angstroms)
 Number     Number       Type             X           Y           Z
 ---------------------------------------------------------------------
      1          6           0       -3.257648    3.309936    1.499206
      2          6           0       -3.856824    5.300195    0.551953
      3          1           0       -3.498443    2.634247    0.681872
      4          1           0       -3.903387    3.258596    2.365879
      5          1           0       -2.206221    3.505391    1.696352
      6          6           0       -4.734634    5.784028    1.253747
      7          1           0       -5.477084    6.067632    1.955424
      8          8           0       -3.010324    5.261061   -0.492554
      9          1           0       -2.467316    4.430825   -0.472832
 ---------------------------------------------------------------------

 ******    1 imaginary frequencies (negative Signs) ******

                      1                      2                      3
                      A                      A                      A
 Frequencies --   -546.3882               113.8734               182.2758
 Red. masses --      9.4981                 1.0829                 1.0977
 Frc consts  --      1.6707                 0.0083                 0.0215
 IR Inten    --      2.0156                 5.1645               102.6146

                      4                      5                      6
                      A                      A                      A
 Frequencies --    232.4036               338.5412               432.4527
 Red. masses --      2.9472                 4.5745                 1.7159
 Frc consts  --      0.0938                 0.3089                 0.1891
 IR Inten    --      1.5690                 2.7854                 5.4332

                      7                      8                      9
                      A                      A                      A
 Frequencies --    504.5404               544.5168               547.4446
 Red. masses --      1.1769                 1.8543                 1.1746
 Frc consts  --      0.1765                 0.3239                 0.2074
 IR Inten    --     46.3387                 0.4286                20.0735

                     10                     11                     12
                      A                      A                      A
 Frequencies --    582.3553               878.4184               995.4740
 Red. masses --      1.2429                 1.1665                 7.5270
 Frc consts  --      0.2483                 0.5303                 4.3947
 IR Inten    --    103.2257                13.5097                88.8325

                     13                     14                     15
                      A                      A                      A
 Frequencies --   1274.2684              1467.5476              1492.1563
 Red. masses --      1.1594                 1.0963                 1.0886
 Frc consts  --      1.1092                 1.3912                 1.4281
 IR Inten    --    166.4988                 1.3590                 5.1549

                     16                     17                     18
                      A                      A                      A
 Frequencies --   2122.7039              3094.8907              3235.9891
 Red. masses --      6.3152                 1.0152                 1.1132
 Frc consts  --     16.7656                 5.7291                 6.8679
 IR Inten    --     55.3390                 0.9779                13.4075

                     19                     20                     21
                      A                      A                      A
 Frequencies --   3276.8260              3502.2513              3504.5029
 Red. masses --      1.1106                 1.0802                 1.1271
 Frc consts  --      7.0261                 7.8066                 8.1559
 IR Inten    --      4.4369                12.5725                82.2219

 - Thermochemistry -
 -------------------
 Temperature   298.150 Kelvin.  Pressure   1.00000 Atm.
 Atom     1 has atomic number  6 and mass  12.00000

 Molecular mass:    57.03404 amu.
 Principal axes and moments of inertia in atomic units:
                           1         2         3
     Eigenvalues --   198.82578 257.73885 444.11961
           X           -0.27415  -0.66499   0.69472
           Y            0.87374   0.12957   0.46882
           Z           -0.40177   0.73553   0.54551
 This molecule is an asymmetric top.
 Rotational symmetry number  1.
 Rotational temperatures (Kelvin)      0.43563     0.33605     0.19502
 Rotational constants (GHZ):           9.07700     7.00221     4.06364
    1 imaginary frequencies ignored.
 Zero-point vibrational energy     169411.7 (Joules/Mol)
                                   40.49038 (Kcal/Mol)
 Warning -- explicit consideration of   9 degrees of freedom as
           vibrations may cause significant error
 Vibrational temperatures:    163.84   262.25   334.38   487.08   622.20
          (Kelvin)            725.92   783.44   787.65   837.88  1263.85
                             1432.26  1833.39  2111.47  2146.88  3054.09
                             4452.85  4655.86  4714.62  5038.95  5042.19

 Zero-point correction=                           0.064526 (Hartree/Particle)
 Thermal correction to Energy=                    0.070715
 Thermal correction to Enthalpy=                  0.071659
 Thermal correction to Gibbs Free Energy=         0.035535
 Sum of electronic and zero-point Energies=           -191.245819
 Sum of electronic and thermal Energies=              -191.239629
 Sum of electronic and thermal Enthalpies=            -191.238685
 Sum of electronic and thermal Free Energies=         -191.274810

                     E (Thermal)             CV                S
                      KCal/Mol        Cal/Mol-Kelvin    Cal/Mol-Kelvin
 Total                   44.374             20.401             76.031
 Electronic               0.000              0.000              1.377
 Translational            0.889              2.981             38.044
 Rotational               0.889              2.981             24.635
 Vibrational             42.597             14.440             11.974
 Vibration     1          0.607              1.938              3.202
 Vibration     2          0.630              1.864              2.305
 Vibration     3          0.653              1.791              1.860
 Vibration     4          0.719              1.598              1.219
 Vibration     5          0.793              1.400              0.851
 Vibration     6          0.860              1.240              0.647
 Vibration     7          0.900              1.152              0.556
 Vibration     8          0.903              1.145              0.549
 Vibration     9          0.939              1.069              0.481

 Normal termination of Gaussian 09 at Fri Jan  8 00:17:05 2021.
