 Gaussian 09, Revision D.01,
 Gaussian 09:  ES64L-G09RevD.01 24-Apr-2013

 ----------------------------------------------------------------------
 #P b3lyp/3-21G scf=qc opt(calcall, ts, noeigentest, cartesian,maxcycle
 =100)
 ----------------------------------------------------------------------

 ------------------------------
 Gaussian input prepared by ASE
 ------------------------------
 Symbolic Z-matrix:
 Charge =  0 Multiplicity = 2

 SCF Done:  E(UB3LYP) =  -191.341798724     a.u. after    8 cycles
 SCF Done:  E(UB3LYP) =  -191.353257803     a.u. after    8 cycles
 SCF Done:  E(UB3LYP) =  -191.361302715     a.u. after    8 cycles
 SCF Done:  E(UB3LYP) =  -191.366293225     a.u. after    6 cycles
 SCF Done:  E(UB3LYP) =  -191.369048853     a.u. after    6 cycles
 SCF Done:  E(UB3LYP) =  -191.370621872     a.u. after    6 cycles
 SCF Done:  E(UB3LYP) =  -191.370748423     a.u. after    6 cycles
 SCF Done:  E(UB3LYP) =  -191.370226073     a.u. after    6 cycles
 SCF Done:  E(UB3LYP) =  -191.369440064     a.u. after    6 cycles
 SCF Done:  E(UB3LYP) =  -191.368708390     a.u. after    6 cycles
 SCF Done:  E(UB3LYP) =  -191.368496234     a.u. after    5 cycles
 SCF Done:  E(UB3LYP) =  -191.368533972     a.u. after    6 cycles
 SCF Done:  E(UB3LYP) =  -191.368553513     a.u. after    4 cycles
 SCF Done:  E(UB3LYP) =  -191.368562036     a.u. after    5 cycles
 SCF Done:  E(UB3LYP) =  -191.368567932     a.u. after    4 cycles
 SCF Done:  E(UB3LYP) =  -191.368568263     a.u. after    5 cycles
 SCF Done:  E(UB3LYP) =  -191.368573541     a.u. after    3 cycles
 SCF Done:  E(UB3LYP) =  -191.368573699     a.u. after    4 cycles
 SCF Done:  E(UB3LYP) =  -191.368573946     a.u. after    3 cycles
 SCF Done:  E(UB3LYP) =  -191.368573949     a.u. after    2 cycles
 Optimization completed.
    -- Stationary point found.

                         Standard orientation:
 ---------------------------------------------------------------------
 Center     Atomic      Atomic             Coordinates (Angstroms)
 Number     Number       Type             X           Y           Z
 ---------------------------------------------------------------------
      1          6           0       -1.966696   -0.162205    0.000003
      2          6           0       -0.546444    0.158874    0.000044
      3          1           0       -2.244895   -0.747458   -0.888176
      4          1           0       -2.595144    0.745010   -0.000836
      5          1           0       -2.245249   -0.746087    0.888967
      6          6           0        0.710888    0.482464   -0.000020
      7          1           0        1.039261    1.527488   -0.000111
      8          8           0        1.778550   -0.462612   -0.000045
      9          1           0        2.631138    0.047145    0.000356
 ---------------------------------------------------------------------

 The electronic state is 2-A.
 Alpha  occ. eigenvalues --  -19.04082 -10.17380 -10.13895 -10.12377  -1.01882
 Alpha  occ. eigenvalues --   -0.78086  -0.70742  -0.53132  -0.51799  -0.44873
 Alpha  occ. eigenvalues --   -0.42685  -0.42507  -0.34630  -0.33315  -0.21556
 Alpha  occ. eigenvalues --   -0.18692
 Alpha virt. eigenvalues --    0.05416   0.09863   0.13377   0.16506   0.18285
 Alpha virt. eigenvalues --    0.20189   0.23944   0.30779   0.44910   0.67216
 Alpha virt. eigenvalues --    0.71517   0.72228   0.77749   0.79311   0.87968

  Beta  occ. eigenvalues --  -19.03899 -10.17617 -10.14008 -10.11012  -1.01404
  Beta  occ. eigenvalues --   -0.76088  -0.70238  -0.51526  -0.50833  -0.44015
  Beta  occ. eigenvalues --   -0.42327  -0.41317  -0.34746  -0.32675  -0.20626
  Beta virt. eigenvalues --   -0.04817   0.06128   0.10637   0.13884   0.17057
  Beta virt. eigenvalues --    0.18961   0.20455   0.25665   0.32127   0.45508
  Beta virt. eigenvalues --    0.67646   0.72081   0.76059   0.77578   0.81210

 Mulliken charges and spin densities:
               1          2
     1  C   -0.668818  -0.107698
     2  C    0.101185   1.026565
     3  H    0.226595   0.022514
     4  H    0.216445   0.070437
     5  H    0.226592   0.022435
     6  C   -0.095794  -0.173594
     7  H    0.179785   0.073750
     8  O   -0.529410   0.050359
     9  H    0.343419   0.015231
 Sum of Mulliken charges =   0.00000   1.00000

 Dipole moment (field-independent basis, Debye):
    X=             -0.0364    Y=              1.5116    Z=              0.0006  Tot=              1.5121
 Quadrupole moment (field-independent basis, Debye-Ang):
   XX=            -16.3127   YY=            -24.5964   ZZ=            -25.6188
   XY=              3.6857   XZ=              0.0020   YZ=             -0.0001

  Exact polarizability:  57.827   4.730  25.764   0.001   0.000  16.592
 Approx polarizability:  82.834   5.623  34.369  -0.001   0.001  20.192

 ******    1 imaginary frequencies (negative Signs) ******

                      1                      2                      3
                      A                      A                      A
 Frequencies --   -203.3431                38.5044               135.7715
 Red. masses --      3.9490                 1.2260                 1.1032
 Frc consts  --      0.0962                 0.0011                 0.0120
 IR Inten    --     12.1313                 3.6493                94.7602

                      4                      5                      6
                      A                      A                      A
 Frequencies --    251.4126               465.4038               822.1378
 Red. masses --      2.5169                 6.4986                 1.6314
 Frc consts  --      0.0937                 0.8293                 0.6497
 IR Inten    --     47.5212                 3.4825                11.4831

                      7                      8                      9
                      A                      A                      A
 Frequencies --    825.2185              1008.9103              1043.8945
 Red. masses --      4.3147                 5.2020                 1.3395
 Frc consts  --      1.7311                 3.1198                 0.8600
 IR Inten    --      7.5023               164.9362                22.5869

                     10                     11                     12
                      A                      A                      A
 Frequencies --   1083.2984              1260.1414              1407.1208
 Red. masses --      1.3590                 1.0686                 1.2636
 Frc consts  --      0.9396                 0.9998                 1.4741
 IR Inten    --      3.9392                74.6891                11.2882

                     13                     14                     15
                      A                      A                      A
 Frequencies --   1467.3029              1532.8318              1542.3418
 Red. masses --      1.1787                 1.0441                 1.0377
 Frc consts  --      1.4952                 1.4454                 1.4544
 IR Inten    --      1.3842                 7.7934                 7.7085

                     16                     17                     18
                      A                      A                      A
 Frequencies --   1882.6326              2973.6208              3029.5219
 Red. masses --      8.3197                 1.0500                 1.0786
 Frc consts  --     17.3737                 5.4705                 5.8325
 IR Inten    --     53.3497                31.8591                43.7416

                     19                     20                     21
                      A                      A                      A
 Frequencies --   3031.3997              3059.8853              3486.5513
 Red. masses --      1.0786                 1.0983                 1.0667
 Frc consts  --      5.8396                 6.0587                 7.6399
 IR Inten    --      6.1895                14.0079                 3.0509

 - Thermochemistry -
 -------------------
 Temperature   298.150 Kelvin.  Pressure   1.00000 Atm.
 Atom     1 has atomic number  6 and mass  12.00000

 Molecular mass:    57.03404 amu.
 Principal axes and moments of inertia in atomic units:
                           1         2         3
     Eigenvalues --    44.19042 475.44871 508.27259
           X            0.99968   0.02530   0.00001
           Y           -0.02530   0.99968  -0.00001
           Z           -0.00001   0.00001   1.00000
 This molecule is an asymmetric top.
 Rotational symmetry number  1.
 Rotational temperatures (Kelvin)      1.96001     0.18217     0.17041
 Rotational constants (GHZ):          40.84010     3.79587     3.55073
    1 imaginary frequencies ignored.
 Zero-point vibrational energy     181520.8 (Joules/Mol)
                                   43.38450 (Kcal/Mol)
 Warning -- explicit consideration of   4 degrees of freedom as
           vibrations may cause significant error
 Vibrational temperatures:     55.40   195.34   361.73   669.61  1182.87
          (Kelvin)           1187.30  1451.60  1501.93  1558.62  1813.06
                             2024.53  2111.12  2205.40  2219.08  2708.69
                             4278.37  4358.80  4361.50  4402.49  5016.36

 Zero-point correction=                           0.069138 (Hartree/Particle)
 Thermal correction to Energy=                    0.074506
 Thermal correction to Enthalpy=                  0.075450
 Thermal correction to Gibbs Free Energy=         0.039971
 Sum of electronic and zero-point Energies=           -191.299436
 Sum of electronic and thermal Energies=              -191.294068
 Sum of electronic and thermal Enthalpies=            -191.293124
 Sum of electronic and thermal Free Energies=         -191.328603

                     E (Thermal)             CV                S
                      KCal/Mol        Cal/Mol-Kelvin    Cal/Mol-Kelvin
 Total                   46.753             15.673             74.672
 Electronic               0.000              0.000              1.377
 Translational            0.889              2.981             38.044
 Rotational               0.889              2.981             23.883
 Vibrational             44.976              9.712             11.367
 Vibration     1          0.594              1.981              5.335
 Vibration     2          0.614              1.918              2.863
 Vibration     3          0.663              1.760              1.721
 Vibration     4          0.823              1.327              0.751

 Normal termination of Gaussian 09 at Fri Jan  8 01:25:15 2021.
