 Gaussian 09, Revision D.01,
 Gaussian 09:  ES64L-G09RevD.01 24-Apr-2013

 ----------------------------------------------------------------------
 #P b3lyp/3-21G scf=qc opt(calcall, ts, noeigentest, cartesian,maxcycle
 =100) NoSymm
 ----------------------------------------------------------------------

 ------------------------------
 Gaussian input prepared by ASE
 ------------------------------
 Symbolic Z-matrix:
 Charge =  0 Multiplicity = 2

 SCF Done:  E(UB3LYP) =  -191.368567416     a.u. after    7 cycles
 SCF Done:  E(UB3LYP) =  -191.368567466     a.u. after    3 cycles
 Optimization completed.
    -- Stationary point found.

                          Input orientation:
 ---------------------------------------------------------------------
 Center     Atomic      Atomic             Coordinates (Angstroms)
 Number     Number       Type             X           Y           Z
 ---------------------------------------------------------------------
      1          6           0       -5.063329    3.129092    4.268655
      2          6           0       -6.089553    2.825845    5.256131
      3          1           0       -5.065395    4.196123    4.003682
      4          1           0       -5.211071    2.563437    3.332604
      5          1           0       -4.060676    2.876712    4.642506
      6          6           0       -7.019919    2.531747    6.112590
      7          1           0       -7.814104    1.814117    5.879925
      8          8           0       -7.109463    3.094990    7.419409
      9          1           0       -7.910461    2.706278    7.859986
 ---------------------------------------------------------------------

 Alpha  occ. eigenvalues --  -19.04083 -10.17379 -10.13894 -10.12376  -1.01882
 Alpha  occ. eigenvalues --   -0.78086  -0.70742  -0.53132  -0.51799  -0.44873
 Alpha  occ. eigenvalues --   -0.42685  -0.42505  -0.34631  -0.33314  -0.21557
 Alpha  occ. eigenvalues --   -0.18691
 Alpha virt. eigenvalues --    0.05416   0.09862   0.13377   0.16506   0.18286
 Alpha virt. eigenvalues --    0.20191   0.23945   0.30779   0.44910   0.67224
 Alpha virt. eigenvalues --    0.71518   0.72225   0.77749   0.79309   0.87968

  Beta  occ. eigenvalues --  -19.03900 -10.17616 -10.14008 -10.11011  -1.01404
  Beta  occ. eigenvalues --   -0.76088  -0.70238  -0.51526  -0.50833  -0.44015
  Beta  occ. eigenvalues --   -0.42327  -0.41315  -0.34746  -0.32675  -0.20626
  Beta virt. eigenvalues --   -0.04816   0.06128   0.10636   0.13885   0.17057
  Beta virt. eigenvalues --    0.18962   0.20457   0.25667   0.32126   0.45508
  Beta virt. eigenvalues --    0.67653   0.72082   0.76056   0.77579   0.81208

 Mulliken charges and spin densities:
               1          2
     1  C   -0.668823  -0.107695
     2  C    0.101237   1.026544
     3  H    0.226581   0.022509
     4  H    0.216468   0.070408
     5  H    0.226590   0.022476
     6  C   -0.095868  -0.173560
     7  H    0.179802   0.073705
     8  O   -0.529406   0.050378
     9  H    0.343418   0.015236
 Sum of Mulliken charges =   0.00000   1.00000

 Dipole moment (field-independent basis, Debye):
    X=             -0.8515    Y=             -0.9975    Z=             -0.7501  Tot=              1.5108
 Quadrupole moment (field-independent basis, Debye-Ang):
   XX=             -8.7234   YY=            -30.6044   ZZ=            -30.8728
   XY=              6.1497   XZ=             -4.9908   YZ=             -9.9190

  Exact polarizability:  37.322   7.063  21.215 -17.971  -1.540  41.645
 Approx polarizability:  50.691  10.153  27.186 -26.946  -1.481  59.517

 ******    1 imaginary frequencies (negative Signs) ******

                      1                      2                      3
                      A                      A                      A
 Frequencies --   -203.5102                39.8667               141.5325
 Red. masses --      3.9495                 1.2191                 1.1184
 Frc consts  --      0.0964                 0.0011                 0.0132
 IR Inten    --     12.1640                 2.2575                92.3784

                      4                      5                      6
                      A                      A                      A
 Frequencies --    251.3571               465.0568               820.5740
 Red. masses --      2.4617                 6.4944                 1.6354
 Frc consts  --      0.0916                 0.8276                 0.6488
 IR Inten    --     51.2467                 3.4884                11.5504

                      7                      8                      9
                      A                      A                      A
 Frequencies --    825.1381              1008.6344              1044.1290
 Red. masses --      4.2996                 5.2014                 1.3389
 Frc consts  --      1.7248                 3.1177                 0.8600
 IR Inten    --      7.4658               165.3341                22.5269

                     10                     11                     12
                      A                      A                      A
 Frequencies --   1082.6921              1259.8392              1406.3751
 Red. masses --      1.3593                 1.0694                 1.2633
 Frc consts  --      0.9388                 1.0000                 1.4722
 IR Inten    --      3.9255                74.6216                11.1244

                     13                     14                     15
                      A                      A                      A
 Frequencies --   1466.9212              1532.7929              1541.8796
 Red. masses --      1.1788                 1.0441                 1.0377
 Frc consts  --      1.4945                 1.4453                 1.4535
 IR Inten    --      1.3807                 7.7880                 7.7103

                     16                     17                     18
                      A                      A                      A
 Frequencies --   1882.4259              2973.5690              3029.5364
 Red. masses --      8.3280                 1.0500                 1.0788
 Frc consts  --     17.3872                 5.4701                 5.8335
 IR Inten    --     53.3937                31.8846                44.1478

                     19                     20                     21
                      A                      A                      A
 Frequencies --   3031.3801              3059.8357              3486.4848
 Red. masses --      1.0784                 1.0983                 1.0667
 Frc consts  --      5.8389                 6.0585                 7.6396
 IR Inten    --      5.7480                14.0110                 3.0576

 - Thermochemistry -
 -------------------
 Temperature   298.150 Kelvin.  Pressure   1.00000 Atm.
 Atom     1 has atomic number  6 and mass  12.00000

 Molecular mass:    57.03404 amu.
 Principal axes and moments of inertia in atomic units:
                           1         2         3
     Eigenvalues --    44.21361 475.40298 508.24925
           X           -0.57776   0.58903  -0.56501
           Y           -0.04560   0.66786   0.74288
           Z            0.81493   0.45497  -0.35900
 This molecule is an asymmetric top.
 Rotational symmetry number  1.
 Rotational temperatures (Kelvin)      1.95899     0.18219     0.17042
 Rotational constants (GHZ):          40.81868     3.79623     3.55090
    1 imaginary frequencies ignored.
 Zero-point vibrational energy     181533.4 (Joules/Mol)
                                   43.38753 (Kcal/Mol)
 Warning -- explicit consideration of   4 degrees of freedom as
           vibrations may cause significant error
 Vibrational temperatures:     57.36   203.63   361.65   669.11  1180.62
          (Kelvin)           1187.19  1451.20  1502.27  1557.75  1812.63
                             2023.46  2110.57  2205.34  2218.42  2708.39
                             4278.30  4358.82  4361.47  4402.42  5016.27

 Zero-point correction=                           0.069142 (Hartree/Particle)
 Thermal correction to Energy=                    0.074498
 Thermal correction to Enthalpy=                  0.075442
 Thermal correction to Gibbs Free Energy=         0.040032
 Sum of electronic and zero-point Energies=           -191.299425
 Sum of electronic and thermal Energies=              -191.294069
 Sum of electronic and thermal Enthalpies=            -191.293125
 Sum of electronic and thermal Free Energies=         -191.328535

                     E (Thermal)             CV                S
                      KCal/Mol        Cal/Mol-Kelvin    Cal/Mol-Kelvin
 Total                   46.748             15.672             74.527
 Electronic               0.000              0.000              1.377
 Translational            0.889              2.981             38.044
 Rotational               0.889              2.981             23.884
 Vibrational             44.971              9.710             11.222
 Vibration     1          0.594              1.981              5.266
 Vibration     2          0.615              1.912              2.783
 Vibration     3          0.663              1.760              1.721
 Vibration     4          0.823              1.328              0.752

 Normal termination of Gaussian 09 at Fri Jan  8 01:35:23 2021.
