 Gaussian 09, Revision D.01,
 Gaussian 09:  ES64L-G09RevD.01 24-Apr-2013

 ----------------------------------------------------------------------
 #P b3lyp/3-21G scf=qc opt(calcall, ts, noeigentest, cartesian,maxcycle
 =100) NoSymm
 ----------------------------------------------------------------------

 ------------------------------
 Gaussian input prepared by ASE
 ------------------------------
 Symbolic Z-matrix:
 Charge =  0 Multiplicity = 2

 SCF Done:  E(UB3LYP) =  -191.300901594     a.u. after    9 cycles
 SCF Done:  E(UB3LYP) =  -191.304029336     a.u. after    6 cycles
 SCF Done:  E(UB3LYP) =  -191.304545570     a.u. after    5 cycles
 SCF Done:  E(UB3LYP) =  -191.305170995     a.u. after    5 cycles
 SCF Done:  E(UB3LYP) =  -191.305440570     a.u. after    5 cycles
 SCF Done:  E(UB3LYP) =  -191.305556788     a.u. after    6 cycles
 SCF Done:  E(UB3LYP) =  -191.305698033     a.u. after    6 cycles
 SCF Done:  E(UB3LYP) =  -191.305799156     a.u. after    6 cycles
 SCF Done:  E(UB3LYP) =  -191.305975534     a.u. after    5 cycles
 SCF Done:  E(UB3LYP) =  -191.306017396     a.u. after    8 cycles
 SCF Done:  E(UB3LYP) =  -191.306172387     a.u. after    4 cycles
 SCF Done:  E(UB3LYP) =  -191.306114947     a.u. after    6 cycles
 SCF Done:  E(UB3LYP) =  -191.306222406     a.u. after    4 cycles
 SCF Done:  E(UB3LYP) =  -191.306209869     a.u. after    5 cycles
 SCF Done:  E(UB3LYP) =  -191.306224403     a.u. after    3 cycles
 SCF Done:  E(UB3LYP) =  -191.306223908     a.u. after    4 cycles
 SCF Done:  E(UB3LYP) =  -191.306224496     a.u. after    2 cycles
 Optimization completed on the basis of negligible forces.
    -- Stationary point found.

                          Input orientation:
 ---------------------------------------------------------------------
 Center     Atomic      Atomic             Coordinates (Angstroms)
 Number     Number       Type             X           Y           Z
 ---------------------------------------------------------------------
      1          6           0       -9.038363    2.813579   11.256998
      2          6           0      -10.337536    3.054271   10.628911
      3          1           0       -8.605175    3.742725   11.648114
      4          1           0       -8.331736    2.396970   10.528213
      5          1           0       -9.120785    2.101024   12.087307
      6          6           0      -11.398143    3.242594   10.089089
      7          1           0      -12.829341    4.352616   12.231669
      8          8           0      -12.563307    3.441284    9.468640
      9          1           0      -13.231107    3.848622   10.088785
 ---------------------------------------------------------------------

 Alpha  occ. eigenvalues --  -19.09731 -10.16409 -10.13466 -10.11322  -1.07951
 Alpha  occ. eigenvalues --   -0.77013  -0.69947  -0.59442  -0.45783  -0.43129
 Alpha  occ. eigenvalues --   -0.42504  -0.41371  -0.38814  -0.32783  -0.24909
 Alpha  occ. eigenvalues --   -0.22627
 Alpha virt. eigenvalues --    0.05841   0.09734   0.10024   0.14376   0.19441
 Alpha virt. eigenvalues --    0.21576   0.21766   0.28392   0.55566   0.69595
 Alpha virt. eigenvalues --    0.70863   0.73419   0.78251   0.79251   0.88817

  Beta  occ. eigenvalues --  -19.09703 -10.16394 -10.13467 -10.11305  -1.07865
  Beta  occ. eigenvalues --   -0.76982  -0.69920  -0.59374  -0.45743  -0.42974
  Beta  occ. eigenvalues --   -0.42500  -0.41257  -0.38797  -0.24980  -0.22609
  Beta virt. eigenvalues --   -0.08348   0.06450   0.10029   0.10389   0.14428
  Beta virt. eigenvalues --    0.19458   0.21577   0.21827   0.28403   0.55592
  Beta virt. eigenvalues --    0.70739   0.70850   0.73572   0.79238   0.79350

 Mulliken charges and spin densities:
               1          2
     1  C   -0.639000  -0.000688
     2  C    0.365590   0.007163
     3  H    0.219630   0.000150
     4  H    0.226859   0.000383
     5  H    0.219631   0.000125
     6  C   -0.115279  -0.000356
     7  H    0.004937   0.974434
     8  O   -0.645692   0.010694
     9  H    0.363323   0.008097
 Sum of Mulliken charges =   0.00000   1.00000

 Dipole moment (field-independent basis, Debye):
    X=             -0.5406    Y=              0.6755    Z=              1.6448  Tot=              1.8585
 Quadrupole moment (field-independent basis, Debye-Ang):
   XX=             -5.6445   YY=            -20.3380   ZZ=              7.7337
   XY=            -12.0553   XZ=            -24.4656   YZ=             12.2868

  Exact polarizability:  47.706  -7.348  18.440  10.255  -0.425  26.044
 Approx polarizability:  73.730 -11.094  22.387  22.875  -2.139  37.443

 ******    1 imaginary frequencies (negative Signs) ******

                      1                      2                      3
                      A                      A                      A
 Frequencies --    -95.3196                32.5828               177.8250
 Red. masses --      1.0521                 1.0203                 1.0377
 Frc consts  --      0.0056                 0.0006                 0.0193
 IR Inten    --      6.3308                 5.7510               167.4530

                      4                      5                      6
                      A                      A                      A
 Frequencies --    226.4186               229.6907               248.5810
 Red. masses --      1.5566                 4.0373                 1.6406
 Frc consts  --      0.0470                 0.1255                 0.0597
 IR Inten    --      7.9598                 2.3954                12.3744

                      7                      8                      9
                      A                      A                      A
 Frequencies --    537.7274               562.5122               748.8440
 Red. masses --      4.6731                 8.9695                 5.5656
 Frc consts  --      0.7961                 1.6722                 1.8388
 IR Inten    --     13.0931                 8.2463                23.6717

                     10                     11                     12
                      A                      A                      A
 Frequencies --   1106.8373              1110.7000              1193.0537
 Red. masses --      1.4067                 1.3694                 2.5406
 Frc consts  --      1.0154                 0.9953                 2.1306
 IR Inten    --      5.1308                 2.3964               192.3196

                     13                     14                     15
                      A                      A                      A
 Frequencies --   1331.2577              1476.6083              1553.4491
 Red. masses --      1.8406                 1.1821                 1.0379
 Frc consts  --      1.9219                 1.5186                 1.4758
 IR Inten    --     21.0601                 0.1113                 7.9336

                     16                     17                     18
                      A                      A                      A
 Frequencies --   1556.8143              2437.4466              3036.3472
 Red. masses --      1.0391                11.2517                 1.0327
 Frc consts  --      1.4839                39.3858                 5.6094
 IR Inten    --      7.1992                64.5093                27.6857

                     19                     20                     21
                      A                      A                      A
 Frequencies --   3087.1134              3091.1081              3405.1265
 Red. masses --      1.0993                 1.0981                 1.0655
 Frc consts  --      6.1725                 6.1817                 7.2787
 IR Inten    --     17.0390                12.3870                53.1855

 - Thermochemistry -
 -------------------
 Temperature   298.150 Kelvin.  Pressure   1.00000 Atm.
 Atom     1 has atomic number  6 and mass  12.00000

 Molecular mass:    57.03404 amu.
 Principal axes and moments of inertia in atomic units:
                           1         2         3
     Eigenvalues --    40.64808 522.98586 552.28285
           X            0.89386  -0.33225   0.30105
           Y           -0.17081   0.36848   0.91381
           Z            0.41454   0.86823  -0.27262
 This molecule is an asymmetric top.
 Rotational symmetry number  1.
 Rotational temperatures (Kelvin)      2.13082     0.16561     0.15683
 Rotational constants (GHZ):          44.39918     3.45084     3.26778
    1 imaginary frequencies ignored.
 Zero-point vibrational energy     162393.3 (Joules/Mol)
                                   38.81294 (Kcal/Mol)
 Warning -- explicit consideration of   7 degrees of freedom as
           vibrations may cause significant error
 Vibrational temperatures:     46.88   255.85   325.77   330.47   357.65
          (Kelvin)            773.67   809.33  1077.42  1592.49  1598.05
                             1716.54  1915.38  2124.51  2235.06  2239.91
                             3506.94  4368.62  4441.66  4447.41  4899.21

 Zero-point correction=                           0.061852 (Hartree/Particle)
 Thermal correction to Energy=                    0.068240
 Thermal correction to Enthalpy=                  0.069184
 Thermal correction to Gibbs Free Energy=         0.031884
 Sum of electronic and zero-point Energies=           -191.244372
 Sum of electronic and thermal Energies=              -191.237984
 Sum of electronic and thermal Enthalpies=            -191.237040
 Sum of electronic and thermal Free Energies=         -191.274341

                     E (Thermal)             CV                S
                      KCal/Mol        Cal/Mol-Kelvin    Cal/Mol-Kelvin
 Total                   42.821             19.289             78.506
 Electronic               0.000              0.000              1.377
 Translational            0.889              2.981             38.044
 Rotational               0.889              2.981             23.977
 Vibrational             41.044             13.327             15.107
 Vibration     1          0.594              1.983              5.666
 Vibration     2          0.628              1.870              2.351
 Vibration     3          0.650              1.801              1.907
 Vibration     4          0.652              1.796              1.881
 Vibration     5          0.662              1.765              1.741
 Vibration     6          0.893              1.167              0.570
 Vibration     7          0.918              1.112              0.519

 Normal termination of Gaussian 09 at Thu Jan  7 02:26:41 2021.
