 Gaussian 09, Revision D.01,
 Gaussian 09:  ES64L-G09RevD.01 24-Apr-2013

 ----------------------------------------------------------------------
 #P upm6 scf=qc opt(calcall, ts, noeigentest, cartesian,maxcycle=100) N
 oSymm, guess=mix
 ----------------------------------------------------------------------

 ------------------------------
 Gaussian input prepared by ASE
 ------------------------------
 Symbolic Z-matrix:
 Charge =  0 Multiplicity = 2

 SCF Done:  E(UPM6) = -0.133617550859     a.u. after   17 cycles

 Alpha  occ. eigenvalues --   -1.19989  -1.19603  -1.16270  -1.14496  -1.10517
 Alpha  occ. eigenvalues --   -1.07573  -1.06603  -1.01029  -0.97459  -0.89419
 Alpha  occ. eigenvalues --   -0.81480  -0.76866  -0.75419  -0.71897  -0.69528
 Alpha  occ. eigenvalues --   -0.67142  -0.64608  -0.63286  -0.61098  -0.58988
 Alpha  occ. eigenvalues --   -0.58380  -0.57678  -0.56113  -0.55590  -0.55473
 Alpha  occ. eigenvalues --   -0.53029  -0.52746  -0.50504  -0.50129  -0.48536
 Alpha  occ. eigenvalues --   -0.48127  -0.46480  -0.45820  -0.44324  -0.41392
 Alpha  occ. eigenvalues --   -0.39753  -0.38178  -0.36046
 Alpha virt. eigenvalues --   -0.03574  -0.00481   0.00058   0.01034   0.07008
 Alpha virt. eigenvalues --    0.07298   0.08265   0.10325   0.10940   0.11571
 Alpha virt. eigenvalues --    0.12362   0.12875   0.14469   0.15004   0.15172

  Beta  occ. eigenvalues --   -1.19878  -1.19229  -1.14721  -1.12943  -1.10186
  Beta  occ. eigenvalues --   -1.06507  -1.01672  -0.99432  -0.97243  -0.89103
  Beta  occ. eigenvalues --   -0.80973  -0.76004  -0.74659  -0.71122  -0.68809
  Beta  occ. eigenvalues --   -0.65422  -0.64214  -0.62394  -0.60586  -0.58152
  Beta  occ. eigenvalues --   -0.57609  -0.55979  -0.55782  -0.55257  -0.54864
  Beta  occ. eigenvalues --   -0.52466  -0.51663  -0.50023  -0.49865  -0.48166
  Beta  occ. eigenvalues --   -0.47840  -0.46345  -0.44421  -0.42479  -0.40421
  Beta  occ. eigenvalues --   -0.36725  -0.36121
  Beta virt. eigenvalues --   -0.08097  -0.03024   0.00140   0.01284   0.01664
  Beta virt. eigenvalues --    0.07494   0.07757   0.09036   0.10702   0.11213
  Beta virt. eigenvalues --    0.11823   0.12451   0.13049   0.14786   0.15139

 Mulliken charges and spin densities:
               1          2
     1  O   -0.426140   0.003984
     2  C    0.563490  -0.016636
     3  C   -0.423029  -0.002751
     4  C   -0.204476   0.001568
     5  C   -0.302845  -0.011263
     6  C   -0.041232   0.411112
     7  H    0.232509  -0.134417
     8  C    0.545403  -0.004971
     9  O   -0.449011   0.034819
    10  C   -0.626458  -0.002059
    11  H    0.299407  -0.001474
    12  H    0.186270  -0.000102
    13  H    0.202261   0.000199
    14  H    0.148902  -0.000415
    15  H    0.149371  -0.000237
    16  H    0.177019   0.002873
    17  H    0.180431   0.013355
    18  H    0.200363  -0.000164
    19  H    0.211497   0.000165
    20  H    0.205982   0.000208
    21  O   -0.122841   0.066295
    22  O   -0.324698   0.016864
    23  O   -0.243119   0.544969
    24  O   -0.139055   0.078077
 Sum of Mulliken charges =   0.00000   1.00000

 Dipole moment (field-independent basis, Debye):
    X=             -5.0045    Y=             -0.4528    Z=              0.7914  Tot=              5.0869
 N-N= 5.361914358095D+02 E-N=-9.758615348212D+02  KE=-4.448015513805D+01
  Exact polarizability: 113.712  30.249 114.742  25.872  14.293  89.455
 Approx polarizability:  77.948   3.511  65.486  15.557  -3.747  60.288
 Leave Link  601 at Sat Feb  6 16:47:57 2021, MaxMem=    33554432 cpu:         0.0
 (Enter /apps/applications/gaussian/G09.D01/2/default/g09/l701.exe)
 Compute integral second derivatives.
 ... and contract with generalized density number  0.
 Leave Link  701 at Sat Feb  6 16:47:57 2021, MaxMem=    33554432 cpu:         0.1
 (Enter /apps/applications/gaussian/G09.D01/2/default/g09/l702.exe)
 L702 exits ... SP integral derivatives will be done elsewhere.

 Optimization completed.
    -- Stationary point found.

                          Input orientation:
 ---------------------------------------------------------------------
 Center     Atomic      Atomic             Coordinates (Angstroms)
 Number     Number       Type             X           Y           Z
 ---------------------------------------------------------------------
      1          8           0        2.745083    1.797988    1.862665
      2          6           0        1.659245    1.667825    1.368729
      3          6           0        0.344593    1.312141    1.987090
      4          6           0        0.178361   -0.208494    2.109523
      5          6           0        0.504881   -0.991143    0.833275
      6          6           0       -0.307596   -0.596543   -0.383412
      7          1           0        0.027694    0.650609   -0.694844
      8          6           0       -0.010884   -1.396360   -1.663369
      9          8           0        0.580697   -2.445731   -1.581960
     10          6           0       -0.459786   -0.781030   -2.942652
     11          1           0       -3.298920    0.022960   -0.644719
     12          1           0        0.268367    1.783473    2.990933
     13          1           0       -0.490991    1.743133    1.384214
     14          1           0        0.825903   -0.585583    2.930257
     15          1           0       -0.866299   -0.422829    2.419955
     16          1           0        1.586049   -0.892350    0.579510
     17          1           0        0.364887   -2.082614    1.019720
     18          1           0       -0.294782   -1.455197   -3.797045
     19          1           0       -1.534188   -0.524919   -2.918422
     20          1           0        0.078427    0.155901   -3.158331
     21          8           0       -1.651496   -0.560374    0.010273
     22          8           0       -2.382524    0.106973   -1.042815
     23          8           0        0.458788    1.874466   -0.595556
     24          8           0        1.674489    1.827701   -0.073020
 ---------------------------------------------------------------------

 ******    1 imaginary frequencies (negative Signs) ******

                      1                      2                      3
                      A                      A                      A
 Frequencies --  -2541.5921                19.8595                32.5325
 Red. masses --      1.1837                 4.0780                 5.9047
 Frc consts  --      4.5052                 0.0009                 0.0037
 IR Inten    --  12732.3138                 4.5780                 1.7341

                      4                      5                      6
                      A                      A                      A
 Frequencies --     70.2734                72.1388               104.8157
 Red. masses --      4.0684                 7.3505                 1.4904
 Frc consts  --      0.0118                 0.0225                 0.0096
 IR Inten    --      1.6104                 1.2844                16.3682

                      7                      8                      9
                      A                      A                      A
 Frequencies --    121.7034               138.7789               157.6977
 Red. masses --      6.8573                 2.5386                 1.1146
 Frc consts  --      0.0598                 0.0288                 0.0163
 IR Inten    --      1.1165                 4.4652                82.3446

                     10                     11                     12
                      A                      A                      A
 Frequencies --    182.3826               213.2140               219.7335
 Red. masses --      3.3027                 5.9765                 3.4892
 Frc consts  --      0.0647                 0.1601                 0.0993
 IR Inten    --      3.7515                 0.6160                 8.6784

                     13                     14                     15
                      A                      A                      A
 Frequencies --    275.1411               300.1457               320.1571
 Red. masses --      4.3262                 4.2074                 3.8377
 Frc consts  --      0.1930                 0.2233                 0.2318
 IR Inten    --      1.3101                 4.2703                 8.1815

                     16                     17                     18
                      A                      A                      A
 Frequencies --    346.4108               418.3763               426.3287
 Red. masses --      4.3892                 3.0609                 4.9936
 Frc consts  --      0.3103                 0.3157                 0.5347
 IR Inten    --      3.4248                11.5964                 0.7090

                     19                     20                     21
                      A                      A                      A
 Frequencies --    450.9529               526.5973               560.8288
 Red. masses --      6.2907                 3.7520                 6.4502
 Frc consts  --      0.7537                 0.6130                 1.1953
 IR Inten    --     21.0991                27.7435                 1.0843

                     22                     23                     24
                      A                      A                      A
 Frequencies --    585.2583               626.5817               681.3203
 Red. masses --      4.0982                 3.3469                 6.0955
 Frc consts  --      0.8271                 0.7742                 1.6671
 IR Inten    --      1.8658                 9.7970                15.1587

                     25                     26                     27
                      A                      A                      A
 Frequencies --    771.7560               842.5264               867.2400
 Red. masses --      1.5713                 3.4194                 2.8523
 Frc consts  --      0.5514                 1.4301                 1.2639
 IR Inten    --     74.7438                31.3905                15.0000

                     28                     29                     30
                      A                      A                      A
 Frequencies --    926.8511               952.6083               990.2076
 Red. masses --      2.4569                 1.1874                 3.4533
 Frc consts  --      1.2435                 0.6348                 1.9950
 IR Inten    --     18.4387                19.2861                13.5957

                     31                     32                     33
                      A                      A                      A
 Frequencies --   1001.8961              1003.4316              1019.5506
 Red. masses --      2.2753                 2.2606                 1.8395
 Frc consts  --      1.3456                 1.3411                 1.1266
 IR Inten    --     20.0859                79.8965                23.7873

                     34                     35                     36
                      A                      A                      A
 Frequencies --   1042.8558              1054.8211              1092.3623
 Red. masses --      2.1008                 2.8331                 1.4803
 Frc consts  --      1.3461                 1.8573                 1.0407
 IR Inten    --     60.1280                18.8773                 4.8977

                     37                     38                     39
                      A                      A                      A
 Frequencies --   1108.5799              1150.3565              1163.7625
 Red. masses --      1.3328                 2.0680                 1.7246
 Frc consts  --      0.9650                 1.6124                 1.3761
 IR Inten    --     13.9709                 3.8095               138.9863

                     40                     41                     42
                      A                      A                      A
 Frequencies --   1187.2163              1193.7949              1204.1916
 Red. masses --      1.1504                 1.7066                 1.4662
 Frc consts  --      0.9553                 1.4330                 1.2527
 IR Inten    --     64.7207               120.8303                56.4472

                     43                     44                     45
                      A                      A                      A
 Frequencies --   1213.4977              1221.7395              1235.9851
 Red. masses --      1.4807                 1.0782                 1.2332
 Frc consts  --      1.2847                 0.9482                 1.1099
 IR Inten    --     37.0503                64.7130                22.6709

                     46                     47                     48
                      A                      A                      A
 Frequencies --   1243.7038              1256.7719              1260.7137
 Red. masses --      2.6953                 1.2893                 2.1224
 Frc consts  --      2.4564                 1.1999                 1.9875
 IR Inten    --    202.9279                18.2540               143.6019

                     49                     50                     51
                      A                      A                      A
 Frequencies --   1266.5259              1275.3087              1311.0356
 Red. masses --      1.4353                 1.2899                 1.7039
 Frc consts  --      1.3565                 1.2361                 1.7256
 IR Inten    --     14.6208                19.4007                48.4972

                     52                     53                     54
                      A                      A                      A
 Frequencies --   1317.9299              1331.5259              1402.5483
 Red. masses --      1.2363                 1.4496                 1.4677
 Frc consts  --      1.2652                 1.5142                 1.7011
 IR Inten    --    181.7426                 6.8093                24.5074

                     55                     56                     57
                      A                      A                      A
 Frequencies --   1808.5292              1854.2132              2639.9263
 Red. masses --     12.0231                12.3422                 1.0803
 Frc consts  --     23.1695                25.0012                 4.4358
 IR Inten    --    369.8356               441.0549                42.5387

                     58                     59                     60
                      A                      A                      A
 Frequencies --   2645.8732              2649.7932              2663.3969
 Red. masses --      1.0813                 1.0612                 1.0859
 Frc consts  --      4.4600                 4.3899                 4.5386
 IR Inten    --     59.9478               322.0205                96.9478

                     61                     62                     63
                      A                      A                      A
 Frequencies --   2667.1845              2683.0479              2723.2069
 Red. masses --      1.0882                 1.0883                 1.0497
 Frc consts  --      4.5610                 4.6161                 4.5865
 IR Inten    --    106.8625               108.9279                97.3147

                     64                     65                     66
                      A                      A                      A
 Frequencies --   2726.7186              2733.6631              2776.2534
 Red. masses --      1.0520                 1.0480                 1.0320
 Frc consts  --      4.6082                 4.6142                 4.6866
 IR Inten    --     66.4075                68.1338                89.4837

 - Thermochemistry -
 -------------------
 Temperature   298.150 Kelvin.  Pressure   1.00000 Atm.
 Atom     1 has atomic number  8 and mass  15.99491

 Molecular mass:   191.05556 amu.
 Principal axes and moments of inertia in atomic units:
                           1         2         3
     Eigenvalues --  1510.001293421.773903515.54359
           X            0.50807   0.76460  -0.39656
           Y            0.55963   0.05694   0.82678
           Z            0.65473  -0.64199  -0.39897
 This molecule is an asymmetric top.
 Rotational symmetry number  1.
 Warning -- assumption of classical behavior for rotation
           may cause significant error
 Rotational temperatures (Kelvin)      0.05736     0.02531     0.02464
 Rotational constants (GHZ):           1.19519     0.52743     0.51336
    1 imaginary frequencies ignored.
 Zero-point vibrational energy     426674.0 (Joules/Mol)
                                  101.97754 (Kcal/Mol)
 Warning -- explicit consideration of  21 degrees of freedom as
           vibrations may cause significant error
 Vibrational temperatures:     28.57    46.81   101.11   103.79   150.81
          (Kelvin)            175.10   199.67   226.89   262.41   306.77
                              316.15   395.87   431.84   460.63   498.41
                              601.95   613.39   648.82   757.66   806.91
                              842.06   901.51   980.27  1110.38  1212.21
                             1247.76  1333.53  1370.59  1424.69  1441.50
                             1443.71  1466.90  1500.43  1517.65  1571.66
                             1595.00  1655.10  1674.39  1708.14  1717.60
                             1732.56  1745.95  1757.81  1778.30  1789.41
                             1808.21  1813.88  1822.25  1834.88  1886.29
                             1896.20  1915.77  2017.95  2602.07  2667.80
                             3798.26  3806.82  3812.46  3832.03  3837.48
                             3860.30  3918.08  3923.13  3933.13  3994.40

 Zero-point correction=                           0.162512 (Hartree/Particle)
 Thermal correction to Energy=                    0.177173
 Thermal correction to Enthalpy=                  0.178117
 Thermal correction to Gibbs Free Energy=         0.118544
 Sum of electronic and zero-point Energies=              0.028894
 Sum of electronic and thermal Energies=                 0.043556
 Sum of electronic and thermal Enthalpies=               0.044500
 Sum of electronic and thermal Free Energies=           -0.015073

                     E (Thermal)             CV                S
                      KCal/Mol        Cal/Mol-Kelvin    Cal/Mol-Kelvin
 Total                  111.178             51.581            125.382
 Electronic               0.000              0.000              1.377
 Translational            0.889              2.981             41.648
 Rotational               0.889              2.981             31.275
 Vibrational            109.400             45.619             51.082
 Vibration     1          0.593              1.986              6.648
 Vibration     2          0.594              1.983              5.669
 Vibration     3          0.598              1.968              4.146
 Vibration     4          0.598              1.967              4.094
 Vibration     5          0.605              1.945              3.363
 Vibration     6          0.609              1.931              3.073
 Vibration     7          0.614              1.915              2.821
 Vibration     8          0.621              1.894              2.577
 Vibration     9          0.630              1.864              2.304
 Vibration    10          0.644              1.821              2.016
 Vibration    11          0.647              1.811              1.961
 Vibration    12          0.677              1.719              1.564
 Vibration    13          0.693              1.673              1.416
 Vibration    14          0.706              1.635              1.309
 Vibration    15          0.724              1.583              1.182
 Vibration    16          0.781              1.430              0.898
 Vibration    17          0.788              1.413              0.871
 Vibration    18          0.810              1.359              0.793
 Vibration    19          0.882              1.191              0.595
 Vibration    20          0.916              1.116              0.522
 Vibration    21          0.942              1.063              0.476

 Normal termination of Gaussian 09 at Sat Feb  6 16:47:58 2021.
