 Gaussian 09, Revision D.01,
 Gaussian 09:  ES64L-G09RevD.01 24-Apr-2013

 ----------------------------------------------------------------------
 #P b3lyp/3-21G scf=qc opt(calcall, ts, noeigentest, cartesian,maxcycle
 =100)
 ----------------------------------------------------------------------

 ------------------------------
 Gaussian input prepared by ASE
 ------------------------------
 Symbolic Z-matrix:
 Charge =  0 Multiplicity = 2

 SCF Done:  E(UB3LYP) =  -191.372398184     a.u. after    9 cycles

 The electronic state is 2-A.
 Alpha  occ. eigenvalues --  -19.11074 -10.24268 -10.14930 -10.10576  -1.12095
 Alpha  occ. eigenvalues --   -0.78580  -0.66481  -0.53541  -0.48533  -0.47836
 Alpha  occ. eigenvalues --   -0.44828  -0.40435  -0.39645  -0.38752  -0.28190
 Alpha  occ. eigenvalues --   -0.14858
 Alpha virt. eigenvalues --   -0.03643   0.07072   0.11185   0.16891   0.20333
 Alpha virt. eigenvalues --    0.20650   0.21547   0.22287   0.41395   0.65199
 Alpha virt. eigenvalues --    0.66966   0.71080   0.72737   0.74647   0.80671

  Beta  occ. eigenvalues --  -19.10717 -10.23860 -10.15053 -10.09385  -1.11319
  Beta  occ. eigenvalues --   -0.78176  -0.63465  -0.53031  -0.48311  -0.47326
  Beta  occ. eigenvalues --   -0.42523  -0.39950  -0.38755  -0.38130  -0.25518
  Beta virt. eigenvalues --   -0.03063  -0.02785   0.09749   0.11805   0.17690
  Beta virt. eigenvalues --    0.21036   0.21081   0.21892   0.22870   0.41545
  Beta virt. eigenvalues --    0.66687   0.67363   0.72290   0.73368   0.76785

 Mulliken charges and spin densities:
               1          2
     1  C   -0.569848   0.879875
     2  C    0.407337   0.250930
     3  O   -0.425684   0.118590
     4  C   -0.434164  -0.153181
     5  H    0.253348   0.010141
     6  H    0.253348   0.010141
     7  H    0.174355  -0.039799
     8  H    0.166965  -0.036899
     9  H    0.174343  -0.039798
 Sum of Mulliken charges =   0.00000   1.00000

 Dipole moment (field-independent basis, Debye):
    X=             -0.9135    Y=              1.3868    Z=              0.0000  Tot=              1.6606
 Quadrupole moment (field-independent basis, Debye-Ang):
   XX=            -29.1209   YY=            -24.3744   ZZ=            -22.4173
   XY=             -0.0392   XZ=              0.0000   YZ=              0.0000

  Exact polarizability:  57.538  -3.337  28.048   0.000   0.000  23.953
 Approx polarizability: 100.315 -17.753  40.560   0.000   0.000  30.295

 Optimization completed.
    -- Stationary point found.

                         Standard orientation:
 ---------------------------------------------------------------------
 Center     Atomic      Atomic             Coordinates (Angstroms)
 Number     Number       Type             X           Y           Z
 ---------------------------------------------------------------------
      1          6           0       -2.037607   -0.488147    0.000001
      2          6           0        0.959925    0.194375    0.000001
      3          8           0        1.915359   -0.516928    0.000000
      4          6           0       -0.202017    0.847171    0.000002
      5          1           0       -0.514319    1.320913    0.923588
      6          1           0       -0.514327    1.320885   -0.923597
      7          1           0       -1.893076   -1.042497   -0.921413
      8          1           0       -2.828815    0.256819   -0.001025
      9          1           0       -1.894141   -1.041089    0.922428
 ---------------------------------------------------------------------

 ******    1 imaginary frequencies (negative Signs) ******

                      1                      2                      3
                      A                      A                      A
 Frequencies --   -466.9579                63.8085               140.8073
 Red. masses --     10.3495                 1.0825                 4.4258
 Frc consts  --      1.3296                 0.0026                 0.0517
 IR Inten    --      6.6443                 0.3412                 1.0277

                      4                      5                      6
                      A                      A                      A
 Frequencies --    442.0943               443.5423               500.5084
 Red. masses --      6.6926                 1.6358                 1.2193
 Frc consts  --      0.7707                 0.1896                 0.1800
 IR Inten    --      5.3597                 0.7234                 5.5630

                      7                      8                      9
                      A                      A                      A
 Frequencies --    512.6070               615.3611               784.1115
 Red. masses --      1.1568                 1.2936                 1.0730
 Frc consts  --      0.1791                 0.2886                 0.3887
 IR Inten    --      1.0490                 0.4679                23.8581

                     10                     11                     12
                      A                      A                      A
 Frequencies --    877.9921              1093.5886              1106.6218
 Red. masses --      1.2080                 1.5872                 3.9209
 Frc consts  --      0.5486                 1.1184                 2.8290
 IR Inten    --     40.3724                 4.3777                29.6946

                     13                     14                     15
                      A                      A                      A
 Frequencies --   1452.5094              1478.1478              1483.6805
 Red. masses --      1.1793                 1.0919                 1.0919
 Frc consts  --      1.4660                 1.4057                 1.4162
 IR Inten    --     23.6741                 2.3539                 0.8335

                     16                     17                     18
                      A                      A                      A
 Frequencies --   2140.5818              3099.2374              3178.2317
 Red. masses --     11.7173                 1.0132                 1.0553
 Frc consts  --     31.6332                 5.7340                 6.2803
 IR Inten    --    396.8486                 1.5322                15.4404

                     19                     20                     21
                      A                      A                      A
 Frequencies --   3246.5130              3256.6538              3259.9263
 Red. masses --      1.1128                 1.1135                 1.1119
 Frc consts  --      6.9106                 6.9578                 6.9618
 IR Inten    --     17.2684                18.1730                 3.8645

 - Thermochemistry -
 -------------------
 Temperature   298.150 Kelvin.  Pressure   1.00000 Atm.
 Atom     1 has atomic number  6 and mass  12.00000

 Molecular mass:    57.03404 amu.
 Principal axes and moments of inertia in atomic units:
                           1         2         3
     Eigenvalues --    90.57953 493.97445 560.03808
           X            0.99988   0.01535   0.00000
           Y           -0.01535   0.99988   0.00000
           Z            0.00000   0.00000   1.00000
 This molecule is an asymmetric top.
 Rotational symmetry number  1.
 Rotational temperatures (Kelvin)      0.95622     0.17534     0.15466
 Rotational constants (GHZ):          19.92438     3.65351     3.22253
    1 imaginary frequencies ignored.
 Zero-point vibrational energy     174514.4 (Joules/Mol)
                                   41.70994 (Kcal/Mol)
 Warning -- explicit consideration of   7 degrees of freedom as
           vibrations may cause significant error
 Vibrational temperatures:     91.81   202.59   636.07   638.16   720.12
          (Kelvin)            737.53   885.37  1128.16  1263.23  1573.43
                             1592.18  2089.83  2126.72  2134.68  3079.82
                             4459.11  4572.76  4671.00  4685.59  4690.30

 Zero-point correction=                           0.066469 (Hartree/Particle)
 Thermal correction to Energy=                    0.072106
 Thermal correction to Enthalpy=                  0.073050
 Thermal correction to Gibbs Free Energy=         0.037338
 Sum of electronic and zero-point Energies=           -191.305929
 Sum of electronic and thermal Energies=              -191.300292
 Sum of electronic and thermal Enthalpies=            -191.299348
 Sum of electronic and thermal Free Energies=         -191.335060

                     E (Thermal)             CV                S
                      KCal/Mol        Cal/Mol-Kelvin    Cal/Mol-Kelvin
 Total                   45.247             18.093             75.163
 Electronic               0.000              0.000              1.377
 Translational            0.889              2.981             38.044
 Rotational               0.889              2.981             24.731
 Vibrational             43.470             12.132             11.011
 Vibration     1          0.597              1.972              4.336
 Vibration     2          0.615              1.912              2.793
 Vibration     3          0.802              1.378              0.820
 Vibration     4          0.803              1.375              0.816
 Vibration     5          0.856              1.249              0.657
 Vibration     6          0.868              1.222              0.627
 Vibration     7          0.975              0.999              0.424

 Normal termination of Gaussian 09 at Sun Jan 10 14:00:06 2021.
