 Gaussian 09, Revision D.01,
 Gaussian 09:  ES64L-G09RevD.01 24-Apr-2013

 ----------------------------------------------------------------------
 #P pm6 scf=qc opt(calcall, ts, noeigentest, cartesian,maxcycle=100) No
 Symm
 ----------------------------------------------------------------------

 ------------------------------
 Gaussian input prepared by ASE
 ------------------------------
 Symbolic Z-matrix:
 Charge =  0 Multiplicity = 1

 SCF Done:  E(RPM6) = -0.149920568492     a.u. after   12 cycles

 Alpha  occ. eigenvalues --   -1.22273  -1.21753  -1.16360  -1.12188  -1.09115
 Alpha  occ. eigenvalues --   -1.07005  -1.03065  -0.97612  -0.88864  -0.81411
 Alpha  occ. eigenvalues --   -0.74881  -0.73005  -0.68697  -0.67365  -0.65447
 Alpha  occ. eigenvalues --   -0.63533  -0.62583  -0.59513  -0.59308  -0.57297
 Alpha  occ. eigenvalues --   -0.56434  -0.54990  -0.54050  -0.53504  -0.52892
 Alpha  occ. eigenvalues --   -0.52261  -0.50659  -0.49255  -0.46911  -0.45352
 Alpha  occ. eigenvalues --   -0.40025  -0.39572  -0.39112  -0.36882
 Alpha virt. eigenvalues --   -0.06502  -0.04149  -0.01629   0.03619   0.03653
 Alpha virt. eigenvalues --    0.07149   0.08445   0.09405   0.09480   0.10106
 Alpha virt. eigenvalues --    0.11393   0.12128   0.13089   0.14012   0.14715

 Mulliken charges:
               1
     1  O   -0.353073
     2  O   -0.317925
     3  C    0.617027
     4  O   -0.510381
     5  C   -0.187847
     6  C   -0.229924
     7  C   -0.427586
     8  C    0.411482
     9  O   -0.455134
    10  C    0.451185
    11  O   -0.407573
    12  C   -0.618968
    13  H    0.219709
    14  H    0.274839
    15  H    0.180693
    16  H    0.181253
    17  H    0.167564
    18  H    0.202443
    19  H    0.185163
    20  H    0.198140
    21  H    0.211215
    22  H    0.207699
 Sum of Mulliken charges =   0.00000

 Dipole moment (field-independent basis, Debye):
    X=             -5.3668    Y=              4.2781    Z=              0.2383  Tot=              6.8675
 N-N= 4.368025943157D+02 E-N=-7.864860975215D+02  KE=-3.975545907758D+01
  Exact polarizability: 102.236 -14.654  68.482  -5.430  32.594  87.952
 Approx polarizability:  71.381  -1.801  49.745   1.542  28.220  75.093
 Leave Link  601 at Tue Feb 23 12:54:41 2021, MaxMem=    33554432 cpu:         0.0
 (Enter /cm/shared/apps/Gaussian09/g09/l701.exe)
 Compute integral second derivatives.
 ... and contract with generalized density number  0.
 Leave Link  701 at Tue Feb 23 12:54:41 2021, MaxMem=    33554432 cpu:         0.1
 (Enter /cm/shared/apps/Gaussian09/g09/l702.exe)
 L702 exits ... SP integral derivatives will be done elsewhere.

 Optimization completed.
    -- Stationary point found.

                          Input orientation:
 ---------------------------------------------------------------------
 Center     Atomic      Atomic             Coordinates (Angstroms)
 Number     Number       Type             X           Y           Z
 ---------------------------------------------------------------------
      1          8           0       -1.212107    0.409001   -1.141102
      2          8           0        0.376651    0.034303   -1.406990
      3          6           0        0.759568    0.706613   -0.323200
      4          8           0        1.900849    0.887811    0.031245
      5          6           0       -0.471872    1.223121    0.451771
      6          6           0       -0.664986    2.707154    0.434883
      7          6           0       -1.784609    3.200259    1.354230
      8          6           0       -3.144879    2.657639    1.014394
      9          8           0       -3.356567    1.607913    0.452311
     10          6           0       -4.333324    3.542529    1.484382
     11          8           0       -4.515470    3.724308    2.659604
     12          6           0       -5.156087    4.091421    0.372951
     13          1           0       -1.937021    0.329006   -1.836967
     14          1           0       -1.714718    0.622342   -0.001294
     15          1           0       -0.656183    0.672774    1.380034
     16          1           0        0.298495    3.189640    0.741724
     17          1           0       -0.836739    3.058326   -0.607602
     18          1           0       -1.564872    2.927159    2.416265
     19          1           0       -1.791653    4.312598    1.360887
     20          1           0       -4.576586    4.729721   -0.309105
     21          1           0       -5.592665    3.282845   -0.239374
     22          1           0       -5.996452    4.697245    0.751882
 ---------------------------------------------------------------------

 ******    1 imaginary frequencies (negative Signs) ******

                      1                      2                      3
                      A                      A                      A
 Frequencies --  -1185.6497                18.6541                31.4244
 Red. masses --      1.4687                 5.2407                 4.5016
 Frc consts  --      1.2164                 0.0011                 0.0026
 IR Inten    --   1435.0435                 4.9155                 3.3186

                      4                      5                      6
                      A                      A                      A
 Frequencies --     55.5489                63.6557                79.6139
 Red. masses --      5.2981                 5.9345                 1.0496
 Frc consts  --      0.0096                 0.0142                 0.0039
 IR Inten    --      9.9901                 6.0423                 1.3376

                      7                      8                      9
                      A                      A                      A
 Frequencies --    106.5192               148.5142               160.8108
 Red. masses --      5.2801                 4.3134                 4.4783
 Frc consts  --      0.0353                 0.0561                 0.0682
 IR Inten    --      1.3420                 4.8382                 1.8665

                     10                     11                     12
                      A                      A                      A
 Frequencies --    190.0439               204.9268               243.5798
 Red. masses --      3.5215                 3.6548                 3.7327
 Frc consts  --      0.0749                 0.0904                 0.1305
 IR Inten    --      1.0762                 8.8195                 7.8419

                     13                     14                     15
                      A                      A                      A
 Frequencies --    275.7498               325.1691               399.4775
 Red. masses --      3.6204                 5.6892                 4.7269
 Frc consts  --      0.1622                 0.3544                 0.4444
 IR Inten    --     14.0706                13.9482                16.6283

                     16                     17                     18
                      A                      A                      A
 Frequencies --    486.9165               519.4192               572.8845
 Red. masses --      3.7697                 2.7958                 4.0519
 Frc consts  --      0.5266                 0.4444                 0.7835
 IR Inten    --      6.1066                22.5808                71.4509

                     19                     20                     21
                      A                      A                      A
 Frequencies --    581.9391               619.1492               650.6763
 Red. masses --      3.7231                 1.6420                 2.9815
 Frc consts  --      0.7429                 0.3709                 0.7437
 IR Inten    --      3.6450                50.5184                31.8933

                     22                     23                     24
                      A                      A                      A
 Frequencies --    659.1897               701.8574               746.5315
 Red. masses --      1.3567                 5.9112                 1.7278
 Frc consts  --      0.3473                 1.7156                 0.5673
 IR Inten    --    120.3539               113.3578                32.4617

                     25                     26                     27
                      A                      A                      A
 Frequencies --    800.6579               881.0842               930.3651
 Red. masses --      2.7762                 2.4239                 1.9151
 Frc consts  --      1.0486                 1.1087                 0.9767
 IR Inten    --     11.3598                60.5718                38.9810

                     28                     29                     30
                      A                      A                      A
 Frequencies --    978.3124              1004.2235              1015.5980
 Red. masses --      2.8106                 1.6064                 1.7067
 Frc consts  --      1.5849                 0.9545                 1.0372
 IR Inten    --     26.2618                41.3183                41.0687

                     31                     32                     33
                      A                      A                      A
 Frequencies --   1057.8069              1077.8239              1089.4135
 Red. masses --      1.4634                 2.7396                 1.2540
 Frc consts  --      0.9648                 1.8752                 0.8769
 IR Inten    --     25.1910                39.4191                21.0386

                     34                     35                     36
                      A                      A                      A
 Frequencies --   1145.3989              1152.5920              1163.6168
 Red. masses --      2.2371                 1.2707                 1.2898
 Frc consts  --      1.7293                 0.9946                 1.0290
 IR Inten    --      9.5803                 7.9541                10.0750

                     37                     38                     39
                      A                      A                      A
 Frequencies --   1164.3912              1198.3358              1214.9922
 Red. masses --      1.5844                 1.0903                 1.0749
 Frc consts  --      1.2657                 0.9225                 0.9349
 IR Inten    --     63.5668                46.4373                58.3301

                     40                     41                     42
                      A                      A                      A
 Frequencies --   1216.3938              1227.0590              1235.4661
 Red. masses --      1.1637                 3.3068                 1.2256
 Frc consts  --      1.0145                 2.9335                 1.1022
 IR Inten    --    145.1177               152.2817                22.2698

                     43                     44                     45
                      A                      A                      A
 Frequencies --   1238.2546              1254.5279              1298.5081
 Red. masses --      1.4034                 2.5603                 3.1320
 Frc consts  --      1.2678                 2.3741                 3.1114
 IR Inten    --     63.8775               137.1833                77.1008

                     46                     47                     48
                      A                      A                      A
 Frequencies --   1308.2378              1337.6194              1791.5701
 Red. masses --      1.2611                 1.9199                10.8955
 Frc consts  --      1.2717                 2.0239                20.6046
 IR Inten    --    160.6769                16.3894               136.2157

                     49                     50                     51
                      A                      A                      A
 Frequencies --   1819.5783              1829.1791              2059.0933
 Red. masses --     11.7945                12.4454                 1.1129
 Frc consts  --     23.0076                24.5341                 2.7800
 IR Inten    --    600.5701               428.9375               112.6032

                     52                     53                     54
                      A                      A                      A
 Frequencies --   2636.3763              2646.4798              2651.5443
 Red. masses --      1.0786                 1.0835                 1.0603
 Frc consts  --      4.4169                 4.4711                 4.3922
 IR Inten    --     41.9817               137.2090                41.4519

                     55                     56                     57
                      A                      A                      A
 Frequencies --   2673.1371              2681.7289              2696.6328
 Red. masses --      1.0865                 1.0876                 1.0630
 Frc consts  --      4.5743                 4.6085                 4.5542
 IR Inten    --    127.8470               130.4483                99.0833

                     58                     59                     60
                      A                      A                      A
 Frequencies --   2725.5388              2729.6181              2780.1549
 Red. masses --      1.0562                 1.0526                 1.0319
 Frc consts  --      4.6230                 4.6210                 4.6991
 IR Inten    --    116.8899               108.4597               106.3408

 - Thermochemistry -
 -------------------
 Temperature   298.150 Kelvin.  Pressure   1.00000 Atm.
 Atom     1 has atomic number  8 and mass  15.99491

 Molecular mass:   174.05282 amu.
 Principal axes and moments of inertia in atomic units:
                           1         2         3
     Eigenvalues --   771.301504455.444224893.53288
           X            0.81626   0.55059   0.17485
           Y           -0.48000   0.47801   0.73560
           Z           -0.32143   0.68437  -0.65446
 This molecule is an asymmetric top.
 Rotational symmetry number  1.
 Warning -- assumption of classical behavior for rotation
           may cause significant error
 Rotational temperatures (Kelvin)      0.11230     0.01944     0.01770
 Rotational constants (GHZ):           2.33986     0.40506     0.36880
    1 imaginary frequencies ignored.
 Zero-point vibrational energy     392097.4 (Joules/Mol)
                                   93.71352 (Kcal/Mol)
 Warning -- explicit consideration of  19 degrees of freedom as
           vibrations may cause significant error
 Vibrational temperatures:     26.84    45.21    79.92    91.59   114.55
          (Kelvin)            153.26   213.68   231.37   273.43   294.84
                              350.46   396.74   467.85   574.76   700.56
                              747.33   824.25   837.28   890.82   936.18
                              948.43  1009.81  1074.09  1151.97  1267.68
                             1338.59  1407.57  1444.85  1461.22  1521.95
                             1550.75  1567.42  1647.97  1658.32  1674.18
                             1675.30  1724.14  1748.10  1750.12  1765.46
                             1777.56  1781.57  1804.98  1868.26  1882.26
                             1924.53  2577.67  2617.96  2631.78  2962.57
                             3793.15  3807.69  3814.98  3846.04  3858.40
                             3879.85  3921.44  3927.31  4000.02

 Zero-point correction=                           0.149342 (Hartree/Particle)
 Thermal correction to Energy=                    0.163135
 Thermal correction to Enthalpy=                  0.164079
 Thermal correction to Gibbs Free Energy=         0.106162
 Sum of electronic and zero-point Energies=             -0.000579
 Sum of electronic and thermal Energies=                 0.013215
 Sum of electronic and thermal Enthalpies=               0.014159
 Sum of electronic and thermal Free Energies=           -0.043759

                     E (Thermal)             CV                S
                      KCal/Mol        Cal/Mol-Kelvin    Cal/Mol-Kelvin
 Total                  102.369             47.346            121.898
 Electronic               0.000              0.000              0.000
 Translational            0.889              2.981             41.370
 Rotational               0.889              2.981             31.198
 Vibrational            100.591             41.384             49.330
 Vibration     1          0.593              1.986              6.773
 Vibration     2          0.594              1.983              5.737
 Vibration     3          0.596              1.975              4.609
 Vibration     4          0.597              1.972              4.341
 Vibration     5          0.600              1.963              3.900
 Vibration     6          0.605              1.944              3.331
 Vibration     7          0.618              1.904              2.691
 Vibration     8          0.622              1.890              2.540
 Vibration     9          0.633              1.854              2.227
 Vibration    10          0.640              1.833              2.088
 Vibration    11          0.659              1.773              1.777
 Vibration    12          0.677              1.718              1.560
 Vibration    13          0.709              1.625              1.284
 Vibration    14          0.766              1.471              0.965
 Vibration    15          0.843              1.279              0.692
 Vibration    16          0.874              1.207              0.611
 Vibration    17          0.929              1.090              0.499
 Vibration    18          0.939              1.070              0.482
 Vibration    19          0.979              0.991              0.418

 Normal termination of Gaussian 09 at Tue Feb 23 12:54:41 2021.
