 Gaussian 09, Revision D.01,
 Gaussian 09:  ES64L-G09RevD.01 24-Apr-2013

 ----------------------------------------------------------------------
 #P b3lyp/3-21G scf=qc opt(calcall, ts, noeigentest, cartesian,maxcycle
 =100) NoSymm
 ----------------------------------------------------------------------

 ------------------------------
 Gaussian input prepared by ASE
 ------------------------------
 Symbolic Z-matrix:
 Charge =  0 Multiplicity = 2

 SCF Done:  E(UB3LYP) =  -191.327407313     a.u. after    8 cycles
 SCF Done:  E(UB3LYP) =  -191.329429033     a.u. after   13 cycles
 SCF Done:  E(UB3LYP) =  -191.329827986     a.u. after   12 cycles
 SCF Done:  E(UB3LYP) =  -191.330446433     a.u. after    6 cycles
 SCF Done:  E(UB3LYP) =  -191.330506542     a.u. after    6 cycles
 SCF Done:  E(UB3LYP) =  -191.330540355     a.u. after    4 cycles
 SCF Done:  E(UB3LYP) =  -191.330546167     a.u. after    4 cycles
 SCF Done:  E(UB3LYP) =  -191.330548042     a.u. after    4 cycles
 SCF Done:  E(UB3LYP) =  -191.330548887     a.u. after    4 cycles
 SCF Done:  E(UB3LYP) =  -191.330550969     a.u. after    3 cycles
 SCF Done:  E(UB3LYP) =  -191.330534482     a.u. after    5 cycles
 SCF Done:  E(UB3LYP) =  -191.330554035     a.u. after    3 cycles
 SCF Done:  E(UB3LYP) =  -191.330554090     a.u. after    3 cycles
 SCF Done:  E(UB3LYP) =  -191.330554159     a.u. after    2 cycles
 Optimization completed on the basis of negligible forces.
    -- Stationary point found.

                          Input orientation:
 ---------------------------------------------------------------------
 Center     Atomic      Atomic             Coordinates (Angstroms)
 Number     Number       Type             X           Y           Z
 ---------------------------------------------------------------------
      1          6           0       -9.309129    5.268784    2.387661
      2          6           0       -8.286169    6.304639    2.249884
      3          1           0       -8.849960    4.285166    2.544632
      4          1           0       -9.938221    5.214431    1.491146
      5          1           0       -9.957756    5.479949    3.246506
      6          6           0       -7.451978    7.175130    2.159343
      7          1           0       -6.695464    7.911839    2.049314
      8          8           0       -5.297723    6.601478    1.012376
      9          1           0       -5.894966    6.157992    0.323963
 ---------------------------------------------------------------------

 Alpha  occ. eigenvalues --  -19.05376 -10.14931 -10.13471 -10.11822  -0.96390
 Alpha  occ. eigenvalues --   -0.78664  -0.71188  -0.53177  -0.46353  -0.43900
 Alpha  occ. eigenvalues --   -0.43853  -0.41728  -0.35661  -0.28451  -0.27122
 Alpha  occ. eigenvalues --   -0.26621
 Alpha virt. eigenvalues --    0.05903   0.06400   0.10971   0.13163   0.16346
 Alpha virt. eigenvalues --    0.19440   0.19553   0.24903   0.49543   0.68508
 Alpha virt. eigenvalues --    0.69931   0.70211   0.78690   0.79377   0.89408

  Beta  occ. eigenvalues --  -19.03125 -10.14941 -10.13336 -10.11830  -0.89888
  Beta  occ. eigenvalues --   -0.78450  -0.71109  -0.52856  -0.46190  -0.43820
  Beta  occ. eigenvalues --   -0.43724  -0.39135  -0.27728  -0.27348  -0.25284
  Beta virt. eigenvalues --   -0.10797   0.05981   0.07164   0.11867   0.13333
  Beta virt. eigenvalues --    0.16442   0.19466   0.19717   0.25060   0.49658
  Beta virt. eigenvalues --    0.68609   0.69993   0.70681   0.78668   0.79569

 Mulliken charges and spin densities:
               1          2
     1  C   -0.662117  -0.008882
     2  C    0.078211   0.109973
     3  H    0.234382   0.004646
     4  H    0.230679   0.000487
     5  H    0.237192   0.004779
     6  C   -0.364555  -0.050647
     7  H    0.263909   0.001461
     8  O   -0.347265   0.974616
     9  H    0.329564  -0.036433
 Sum of Mulliken charges =   0.00000   1.00000

 Dipole moment (field-independent basis, Debye):
    X=             -1.8351    Y=             -1.2498    Z=             -0.9430  Tot=              2.4122
 Quadrupole moment (field-independent basis, Debye-Ang):
   XX=              2.0810   YY=            -38.0786   ZZ=            -25.4673
   XY=             -0.2824   XZ=              1.7386   YZ=             -7.8638

  Exact polarizability:  46.154  14.060  30.792  -8.652   0.047  23.619
 Approx polarizability:  63.996  26.681  47.176  -8.625  -0.197  27.491

 ******    1 imaginary frequencies (negative Signs) ******

                      1                      2                      3
                      A                      A                      A
 Frequencies --    -74.2865                44.5013               147.4652
 Red. masses --      4.1255                 1.0992                 1.4417
 Frc consts  --      0.0134                 0.0013                 0.0185
 IR Inten    --      5.4748                 0.2803                74.8875

                      4                      5                      6
                      A                      A                      A
 Frequencies --    166.0752               348.3834               354.8004
 Red. masses --      3.0721                 2.1703                 2.5005
 Frc consts  --      0.0499                 0.1552                 0.1855
 IR Inten    --     20.5764                48.0894                34.7355

                      7                      8                      9
                      A                      A                      A
 Frequencies --    376.4452               587.3298               773.0292
 Red. masses --      1.3112                 1.2641                 1.2397
 Frc consts  --      0.1095                 0.2569                 0.4365
 IR Inten    --     41.8148               152.9748                54.2029

                     10                     11                     12
                      A                      A                      A
 Frequencies --    923.7471              1100.6971              1105.8516
 Red. masses --      4.7915                 1.3985                 1.4010
 Frc consts  --      2.4089                 0.9983                 1.0095
 IR Inten    --      1.2795                 4.2971                 5.1937

                     13                     14                     15
                      A                      A                      A
 Frequencies --   1472.9212              1549.0449              1549.9267
 Red. masses --      1.1846                 1.0379                 1.0375
 Frc consts  --      1.5142                 1.4674                 1.4685
 IR Inten    --      0.9776                 9.3852                10.0416

                     16                     17                     18
                      A                      A                      A
 Frequencies --   2226.3510              3043.9832              3099.7791
 Red. masses --      5.8129                 1.0326                 1.0984
 Frc consts  --     16.9758                 5.6373                 6.2180
 IR Inten    --     25.3779                10.5433                 7.2547

                     19                     20                     21
                      A                      A                      A
 Frequencies --   3101.3602              3306.9637              3488.4550
 Red. masses --      1.0987                 1.0670                 1.1642
 Frc consts  --      6.2264                 6.8753                 8.3472
 IR Inten    --      8.4264                10.2493                81.6540

 - Thermochemistry -
 -------------------
 Temperature   298.150 Kelvin.  Pressure   1.00000 Atm.
 Atom     1 has atomic number  6 and mass  12.00000

 Molecular mass:    57.03404 amu.
 Principal axes and moments of inertia in atomic units:
                           1         2         3
     Eigenvalues --    82.68860 624.97397 692.93312
           X            0.90175  -0.15020   0.40532
           Y            0.28922   0.90651  -0.30754
           Z           -0.32123   0.39456   0.86089
 This molecule is an asymmetric top.
 Rotational symmetry number  1.
 Rotational temperatures (Kelvin)      1.04747     0.13859     0.12500
 Rotational constants (GHZ):          21.82576     2.88771     2.60450
    1 imaginary frequencies ignored.
 Zero-point vibrational energy     172065.5 (Joules/Mol)
                                   41.12465 (Kcal/Mol)
 Warning -- explicit consideration of   7 degrees of freedom as
           vibrations may cause significant error
 Vibrational temperatures:     64.03   212.17   238.94   501.25   510.48
          (Kelvin)            541.62   845.04  1112.22  1329.06  1583.66
                             1591.07  2119.20  2228.73  2230.00  3203.22
                             4379.61  4459.89  4462.16  4757.98  5019.10

 Zero-point correction=                           0.065536 (Hartree/Particle)
 Thermal correction to Energy=                    0.071897
 Thermal correction to Enthalpy=                  0.072841
 Thermal correction to Gibbs Free Energy=         0.035260
 Sum of electronic and zero-point Energies=           -191.265018
 Sum of electronic and thermal Energies=              -191.258657
 Sum of electronic and thermal Enthalpies=            -191.257713
 Sum of electronic and thermal Free Energies=         -191.295294

                     E (Thermal)             CV                S
                      KCal/Mol        Cal/Mol-Kelvin    Cal/Mol-Kelvin
 Total                   45.116             19.387             79.096
 Electronic               0.000              0.000              1.377
 Translational            0.889              2.981             38.044
 Rotational               0.889              2.981             25.085
 Vibrational             43.339             13.425             14.589
 Vibration     1          0.595              1.980              5.048
 Vibration     2          0.617              1.905              2.705
 Vibration     3          0.624              1.884              2.479
 Vibration     4          0.726              1.579              1.173
 Vibration     5          0.731              1.565              1.145
 Vibration     6          0.747              1.520              1.053
 Vibration     7          0.944              1.059              0.472

 Normal termination of Gaussian 09 at Wed Jan  6 09:42:21 2021.
