 Gaussian 09, Revision D.01,
 Gaussian 09:  ES64L-G09RevD.01 24-Apr-2013

 ----------------------------------------------------------------------
 #P upm6 scf=qc opt(calcall, ts, noeigentest, cartesian,maxcycle=100) N
 oSymm, guess=mix
 ----------------------------------------------------------------------

 ------------------------------
 Gaussian input prepared by ASE
 ------------------------------
 Symbolic Z-matrix:
 Charge =  0 Multiplicity = 1

 SCF Done:  E(UPM6) = -0.230003837061E-02 a.u. after   11 cycles

 Alpha  occ. eigenvalues --   -1.20466  -1.18114  -1.09034  -1.03042  -0.97734
 Alpha  occ. eigenvalues --   -0.91849  -0.87676  -0.81338  -0.76940  -0.73359
 Alpha  occ. eigenvalues --   -0.63936  -0.62767  -0.61551  -0.60133  -0.58767
 Alpha  occ. eigenvalues --   -0.57718  -0.55189  -0.53230  -0.52451  -0.51768
 Alpha  occ. eigenvalues --   -0.50983  -0.49037  -0.48229  -0.47407  -0.45311
 Alpha  occ. eigenvalues --   -0.45196  -0.38206  -0.37847  -0.36126
 Alpha virt. eigenvalues --   -0.04646  -0.00438   0.00361   0.08671   0.10451
 Alpha virt. eigenvalues --    0.10930   0.11355   0.12791   0.13271   0.14246
 Alpha virt. eigenvalues --    0.15377   0.16303   0.16588   0.16784   0.17444

  Beta  occ. eigenvalues --   -1.18118  -1.17764  -1.08918  -1.02617  -0.97781
  Beta  occ. eigenvalues --   -0.92076  -0.87834  -0.81328  -0.76979  -0.72895
  Beta  occ. eigenvalues --   -0.63985  -0.62257  -0.61346  -0.59879  -0.58953
  Beta  occ. eigenvalues --   -0.57334  -0.55148  -0.53428  -0.52408  -0.52148
  Beta  occ. eigenvalues --   -0.50725  -0.49246  -0.47988  -0.46971  -0.45941
  Beta  occ. eigenvalues --   -0.40386  -0.39455  -0.38203  -0.36222
  Beta virt. eigenvalues --   -0.02484  -0.00109   0.00360   0.08513   0.10409
  Beta virt. eigenvalues --    0.10896   0.11488   0.12870   0.13309   0.14835
  Beta virt. eigenvalues --    0.15376   0.16102   0.16471   0.16772   0.17518

 Mulliken charges and spin densities:
               1          2
     1  C   -0.229582  -0.001197
     2  C   -0.237572   0.003717
     3  C   -0.391592  -0.279214
     4  C    0.544442  -0.060199
     5  C    0.408882   0.000013
     6  C   -0.449559   0.000253
     7  H    0.135723   0.000062
     8  H    0.147975   0.000044
     9  H    0.140629  -0.008387
    10  H    0.149467  -0.000813
    11  H    0.249323   0.072029
    12  H    0.183131   0.007174
    13  C   -0.621650   0.010520
    14  H    0.093708  -0.000001
    15  H    0.179182  -0.000008
    16  H    0.186196  -0.000010
    17  H    0.195814  -0.000823
    18  H    0.203268  -0.000328
    19  H    0.202519  -0.001896
    20  O   -0.460965  -0.000038
    21  O   -0.324013  -0.021013
    22  O   -0.305326   0.280115
 Sum of Mulliken charges =   0.00000   0.00000

 Dipole moment (field-independent basis, Debye):
    X=              2.1698    Y=              0.6021    Z=              2.5830  Tot=              3.4267
 N-N= 3.247022156140D+02 E-N=-5.766988739020D+02  KE=-3.407281793687D+01
  Exact polarizability:  60.848 -20.530  66.767   9.548 -10.879  80.330
 Approx polarizability:  40.365 -11.846  46.451  10.072  -9.042  52.099
 Leave Link  601 at Tue Feb 16 04:57:35 2021, MaxMem=    33554432 cpu:         0.0
 (Enter /cm/shared/apps/Gaussian09/g09/l701.exe)
 Compute integral second derivatives.
 ... and contract with generalized density number  0.
 Leave Link  701 at Tue Feb 16 04:57:35 2021, MaxMem=    33554432 cpu:         0.1
 (Enter /cm/shared/apps/Gaussian09/g09/l702.exe)
 L702 exits ... SP integral derivatives will be done elsewhere.

 Optimization completed.
    -- Stationary point found.

                          Input orientation:
 ---------------------------------------------------------------------
 Center     Atomic      Atomic             Coordinates (Angstroms)
 Number     Number       Type             X           Y           Z
 ---------------------------------------------------------------------
      1          6           0        4.234252   -3.105857    0.853135
      2          6           0        4.951356   -4.021023   -0.150313
      3          6           0        5.369468   -3.259059   -1.396586
      4          6           0        5.909419   -4.109826   -2.513833
      5          6           0        5.076527   -4.212681    2.962527
      6          6           0        3.863392   -3.853757    2.134253
      7          1           0        4.862581   -2.224300    1.089087
      8          1           0        3.311519   -2.696003    0.390630
      9          1           0        5.842391   -4.482487    0.322936
     10          1           0        4.283966   -4.865360   -0.424283
     11          1           0        4.386779   -2.708225   -1.841959
     12          1           0        6.039238   -2.407333   -1.185251
     13          6           0        6.985993   -5.103708   -2.239064
     14          1           0        5.856376   -3.437674    3.034352
     15          1           0        3.178387   -3.237248    2.755063
     16          1           0        3.277944   -4.769304    1.901146
     17          1           0        7.794886   -4.687379   -1.622796
     18          1           0        7.439763   -5.480226   -3.171028
     19          1           0        6.592502   -5.982809   -1.704221
     20          8           0        5.184468   -5.281424    3.519050
     21          8           0        4.169385   -2.578754   -3.277931
     22          8           0        5.451230   -3.954564   -3.646406
 ---------------------------------------------------------------------

 ******    1 imaginary frequencies (negative Signs) ******

                      1                      2                      3
                      A                      A                      A
 Frequencies --   -816.0114                20.2971                24.4380
 Red. masses --      1.3788                 5.0383                 7.4357
 Frc consts  --      0.5409                 0.0012                 0.0026
 IR Inten    --    183.3151                14.6485                14.3149

                      4                      5                      6
                      A                      A                      A
 Frequencies --     45.5229                71.9706                81.1075
 Red. masses --      2.9772                 1.9313                 1.3060
 Frc consts  --      0.0036                 0.0059                 0.0051
 IR Inten    --      0.5016                 3.0697                 0.2881

                      7                      8                      9
                      A                      A                      A
 Frequencies --     95.7758               100.9678               134.3085
 Red. masses --      3.0991                 2.1660                 2.9230
 Frc consts  --      0.0167                 0.0130                 0.0311
 IR Inten    --      0.5266                 4.7089                 1.9258

                     10                     11                     12
                      A                      A                      A
 Frequencies --    240.6132               280.1490               303.8713
 Red. masses --      4.2274                 2.6265                 5.3845
 Frc consts  --      0.1442                 0.1215                 0.2929
 IR Inten    --     29.0445                15.0983                20.4953

                     13                     14                     15
                      A                      A                      A
 Frequencies --    364.9542               391.9680               489.7757
 Red. masses --      3.7644                 2.7407                 4.4323
 Frc consts  --      0.2954                 0.2481                 0.6264
 IR Inten    --      4.8823                 5.5114                42.5719

                     16                     17                     18
                      A                      A                      A
 Frequencies --    516.8821               559.3528               638.7684
 Red. masses --      3.7481                 2.8266                 2.8884
 Frc consts  --      0.5900                 0.5211                 0.6944
 IR Inten    --     38.5165                 4.9790                28.6848

                     19                     20                     21
                      A                      A                      A
 Frequencies --    746.8307               790.2449               839.6756
 Red. masses --      1.1609                 1.4057                 1.4337
 Frc consts  --      0.3815                 0.5172                 0.5956
 IR Inten    --     76.9253                18.6853                 1.6075

                     22                     23                     24
                      A                      A                      A
 Frequencies --    925.9881               971.1282               988.1153
 Red. masses --      1.9569                 1.5641                 1.7094
 Frc consts  --      0.9886                 0.8691                 0.9833
 IR Inten    --      4.1055                24.8523                19.0650

                     25                     26                     27
                      A                      A                      A
 Frequencies --   1003.4457              1029.3665              1079.7003
 Red. masses --      1.4910                 1.9240                 1.5042
 Frc consts  --      0.8845                 1.2011                 1.0332
 IR Inten    --     26.8878                64.3855                29.9095

                     28                     29                     30
                      A                      A                      A
 Frequencies --   1091.2927              1120.2299              1153.7363
 Red. masses --      1.8308                 1.4363                 1.6091
 Frc consts  --      1.2846                 1.0620                 1.2620
 IR Inten    --     20.7455                13.8323                37.8973

                     31                     32                     33
                      A                      A                      A
 Frequencies --   1160.0084              1171.0852              1187.9381
 Red. masses --      1.5813                 1.6310                 1.4559
 Frc consts  --      1.2536                 1.3179                 1.2105
 IR Inten    --      1.0500                 2.3350                 0.7247

                     34                     35                     36
                      A                      A                      A
 Frequencies --   1197.4069              1207.7323              1219.7327
 Red. masses --      1.4627                 1.1005                 1.0746
 Frc consts  --      1.2356                 0.9458                 0.9419
 IR Inten    --      0.0718                79.9491                88.6799

                     37                     38                     39
                      A                      A                      A
 Frequencies --   1233.3120              1240.3056              1270.2205
 Red. masses --      2.0992                 1.1110                 1.1190
 Frc consts  --      1.8813                 1.0070                 1.0638
 IR Inten    --     12.3673                80.8493                20.9802

                     40                     41                     42
                      A                      A                      A
 Frequencies --   1274.7425              1279.6740              1291.5608
 Red. masses --      1.1322                 1.1640                 1.3877
 Frc consts  --      1.0840                 1.1231                 1.3639
 IR Inten    --      4.3113                 1.2732                64.0671

                     43                     44                     45
                      A                      A                      A
 Frequencies --   1304.6920              1315.0059              1325.2362
 Red. masses --      1.9030                 1.2320                 1.9149
 Frc consts  --      1.9085                 1.2552                 1.9815
 IR Inten    --    107.3237               121.5574               102.8747

                     46                     47                     48
                      A                      A                      A
 Frequencies --   1333.5777              1684.8806              1792.3425
 Red. masses --      2.3530                10.8194                11.4673
 Frc consts  --      2.4656                18.0964                21.7047
 IR Inten    --     63.2984               308.1621               273.0507

                     49                     50                     51
                      A                      A                      A
 Frequencies --   1953.9141              2644.3826              2653.3387
 Red. masses --      1.0870                 1.0683                 1.0773
 Frc consts  --      2.4451                 4.4015                 4.4685
 IR Inten    --     93.5926                 3.1747                 1.9892

                     52                     53                     54
                      A                      A                      A
 Frequencies --   2662.8250              2674.7132              2678.2310
 Red. masses --      1.0830                 1.0887                 1.0864
 Frc consts  --      4.5244                 4.5888                 4.5911
 IR Inten    --     71.8514                56.5390               127.0781

                     55                     56                     57
                      A                      A                      A
 Frequencies --   2686.5126              2707.3664              2730.8464
 Red. masses --      1.0876                 1.0651                 1.0433
 Frc consts  --      4.6246                 4.5997                 4.5841
 IR Inten    --    100.3823               119.4055                 6.1959

                     58                     59                     60
                      A                      A                      A
 Frequencies --   2741.8023              2745.6930              2784.1547
 Red. masses --      1.0495                 1.0584                 1.0317
 Frc consts  --      4.6485                 4.7013                 4.7119
 IR Inten    --     76.4482                71.3369                93.8881

 - Thermochemistry -
 -------------------
 Temperature   298.150 Kelvin.  Pressure   1.00000 Atm.
 Atom     1 has atomic number  6 and mass  12.00000

 Molecular mass:   144.07864 amu.
 Principal axes and moments of inertia in atomic units:
                           1         2         3
     Eigenvalues --   734.079873490.390144069.29769
           X           -0.11825   0.74008   0.66204
           Y           -0.11863  -0.67247   0.73056
           Z            0.98587   0.00785   0.16732
 This molecule is an asymmetric top.
 Rotational symmetry number  1.
 Warning -- assumption of classical behavior for rotation
           may cause significant error
 Rotational temperatures (Kelvin)      0.11799     0.02481     0.02128
 Rotational constants (GHZ):           2.45851     0.51706     0.44350
    1 imaginary frequencies ignored.
 Zero-point vibrational energy     426191.8 (Joules/Mol)
                                  101.86229 (Kcal/Mol)
 Warning -- explicit consideration of  16 degrees of freedom as
           vibrations may cause significant error
 Vibrational temperatures:     29.20    35.16    65.50   103.55   116.70
          (Kelvin)            137.80   145.27   193.24   346.19   403.07
                              437.20   525.09   563.95   704.68   743.68
                              804.78   919.04  1074.52  1136.98  1208.10
                             1332.29  1397.24  1421.68  1443.73  1481.03
                             1553.45  1570.12  1611.76  1659.97  1668.99
                             1684.93  1709.18  1722.80  1737.66  1754.92
                             1774.46  1784.52  1827.56  1834.07  1841.16
                             1858.27  1877.16  1892.00  1906.72  1918.72
                             2424.16  2578.78  2811.24  3804.67  3817.56
                             3831.21  3848.31  3853.37  3865.29  3895.29
                             3929.07  3944.84  3950.43  4005.77

 Zero-point correction=                           0.162328 (Hartree/Particle)
 Thermal correction to Energy=                    0.175058
 Thermal correction to Enthalpy=                  0.176002
 Thermal correction to Gibbs Free Energy=         0.119850
 Sum of electronic and zero-point Energies=              0.160028
 Sum of electronic and thermal Energies=                 0.172758
 Sum of electronic and thermal Enthalpies=               0.173702
 Sum of electronic and thermal Free Energies=            0.117550

                     E (Thermal)             CV                S
                      KCal/Mol        Cal/Mol-Kelvin    Cal/Mol-Kelvin
 Total                  109.850             42.380            118.181
 Electronic               0.000              0.000              0.000
 Translational            0.889              2.981             40.807
 Rotational               0.889              2.981             30.723
 Vibrational            108.073             36.418             46.652
 Vibration     1          0.593              1.986              6.605
 Vibration     2          0.593              1.985              6.236
 Vibration     3          0.595              1.979              5.003
 Vibration     4          0.598              1.967              4.099
 Vibration     5          0.600              1.962              3.864
 Vibration     6          0.603              1.952              3.539
 Vibration     7          0.604              1.948              3.436
 Vibration     8          0.613              1.919              2.883
 Vibration     9          0.658              1.778              1.798
 Vibration    10          0.680              1.710              1.533
 Vibration    11          0.695              1.666              1.395
 Vibration    12          0.738              1.544              1.101
 Vibration    13          0.759              1.487              0.993
 Vibration    14          0.846              1.273              0.684
 Vibration    15          0.872              1.213              0.617
 Vibration    16          0.915              1.119              0.525

 Normal termination of Gaussian 09 at Tue Feb 16 04:57:35 2021.
