 Gaussian 09, Revision D.01,
 Gaussian 09:  ES64L-G09RevD.01 24-Apr-2013

 ----------------------------------------------------------------------
 #P b3lyp/3-21G scf=qc opt(calcall, ts, noeigentest, cartesian,maxcycle
 =100)
 ----------------------------------------------------------------------

 ------------------------------
 Gaussian input prepared by ASE
 ------------------------------
 Symbolic Z-matrix:
 Charge =  0 Multiplicity = 2

 SCF Done:  E(UB3LYP) =  -191.287813148     a.u. after    8 cycles
 SCF Done:  E(UB3LYP) =  -191.302093348     a.u. after   10 cycles
 SCF Done:  E(UB3LYP) =  -191.312512610     a.u. after    8 cycles
 SCF Done:  E(UB3LYP) =  -191.325249450     a.u. after   10 cycles
 SCF Done:  E(UB3LYP) =  -191.327166055     a.u. after    6 cycles
 SCF Done:  E(UB3LYP) =  -191.330325722     a.u. after   10 cycles
 SCF Done:  E(UB3LYP) =  -191.330693621     a.u. after    5 cycles
 SCF Done:  E(UB3LYP) =  -191.331117066     a.u. after    6 cycles
 SCF Done:  E(UB3LYP) =  -191.331256913     a.u. after    6 cycles
 SCF Done:  E(UB3LYP) =  -191.331353492     a.u. after    5 cycles
 SCF Done:  E(UB3LYP) =  -191.331409422     a.u. after    5 cycles
 SCF Done:  E(UB3LYP) =  -191.331446703     a.u. after    4 cycles
 SCF Done:  E(UB3LYP) =  -191.331462327     a.u. after    4 cycles
 SCF Done:  E(UB3LYP) =  -191.331468219     a.u. after    4 cycles
 SCF Done:  E(UB3LYP) =  -191.331469505     a.u. after    3 cycles
 SCF Done:  E(UB3LYP) =  -191.331469638     a.u. after    2 cycles
 Optimization completed.
    -- Stationary point found.

                         Standard orientation:
 ---------------------------------------------------------------------
 Center     Atomic      Atomic             Coordinates (Angstroms)
 Number     Number       Type             X           Y           Z
 ---------------------------------------------------------------------
      1          6           0       -1.694054   -0.437505   -0.007664
      2          6           0       -0.540150    0.457678    0.013242
      3          1           0       -2.416852   -0.123276   -0.769920
      4          1           0       -2.203935   -0.453669    0.962875
      5          1           0       -1.362811   -1.455273   -0.245899
      6          6           0        0.453714    1.151908    0.007689
      7          1           0        1.260270    1.840237   -0.019500
      8          8           0        1.723393   -0.748192   -0.112139
      9          1           0        1.619122   -0.854971    0.889959
 ---------------------------------------------------------------------

 The electronic state is 2-A.
 Alpha  occ. eigenvalues --  -19.02472 -10.14789 -10.14032 -10.12876  -0.93905
 Alpha  occ. eigenvalues --   -0.78956  -0.71529  -0.53626  -0.46431  -0.43988
 Alpha  occ. eigenvalues --   -0.43877  -0.39510  -0.34911  -0.27701  -0.25888
 Alpha  occ. eigenvalues --   -0.23950
 Alpha virt. eigenvalues --    0.05293   0.06039   0.11891   0.13770   0.15123
 Alpha virt. eigenvalues --    0.19442   0.19718   0.24718   0.48478   0.67590
 Alpha virt. eigenvalues --    0.69802   0.72183   0.78513   0.82210   0.88391

  Beta  occ. eigenvalues --  -19.00340 -10.14809 -10.13755 -10.12851  -0.88024
  Beta  occ. eigenvalues --   -0.78434  -0.71277  -0.53446  -0.46241  -0.43811
  Beta  occ. eigenvalues --   -0.43612  -0.37170  -0.28434  -0.27323  -0.23275
  Beta virt. eigenvalues --   -0.07343   0.05482   0.07112   0.12386   0.14295
  Beta virt. eigenvalues --    0.15292   0.19489   0.19958   0.25026   0.48608
  Beta virt. eigenvalues --    0.67739   0.69918   0.73001   0.78503   0.82687

 Mulliken charges and spin densities:
               1          2
     1  C   -0.667281  -0.016866
     2  C    0.124224   0.172267
     3  H    0.236769   0.003943
     4  H    0.229067   0.001631
     5  H    0.245796   0.012558
     6  C   -0.348281  -0.042568
     7  H    0.243869   0.003107
     8  O   -0.373930   0.899275
     9  H    0.309766  -0.033346
 Sum of Mulliken charges =   0.00000   1.00000

 Dipole moment (field-independent basis, Debye):
    X=             -1.3853    Y=             -0.0100    Z=              1.5339  Tot=              2.0669
 Quadrupole moment (field-independent basis, Debye-Ang):
   XX=            -22.0641   YY=            -22.5533   ZZ=            -23.8221
   XY=              3.0152   XZ=              2.7934   YZ=             -1.5562

  Exact polarizability:  47.603   2.492  32.846   0.640  -1.210  20.959
 Approx polarizability:  70.381   9.609  46.247  -1.581  -0.391  26.916

 ******    1 imaginary frequencies (negative Signs) ******

                      1                      2                      3
                      A                      A                      A
 Frequencies --    -83.1505                80.6479               158.1405
 Red. masses --      5.0353                 1.0695                 9.6301
 Frc consts  --      0.0205                 0.0041                 0.1419
 IR Inten    --      6.0759                 0.0569                 1.5638

                      4                      5                      6
                      A                      A                      A
 Frequencies --    272.5149               313.0929               359.3160
 Red. masses --      1.1436                 3.3888                 2.5901
 Frc consts  --      0.0500                 0.1957                 0.1970
 IR Inten    --     66.4091                10.5981                16.4977

                      7                      8                      9
                      A                      A                      A
 Frequencies --    581.2535               679.8292               722.7395
 Red. masses --      1.0533                 1.1179                 1.2779
 Frc consts  --      0.2097                 0.3044                 0.3933
 IR Inten    --     87.8792                52.7524                49.5315

                     10                     11                     12
                      A                      A                      A
 Frequencies --    923.4363              1090.7634              1108.0664
 Red. masses --      4.7683                 1.4061                 1.4027
 Frc consts  --      2.3956                 0.9857                 1.0147
 IR Inten    --      0.4381                 1.4413                 4.7896

                     13                     14                     15
                      A                      A                      A
 Frequencies --   1461.4573              1542.8194              1550.0033
 Red. masses --      1.1875                 1.0391                 1.0382
 Frc consts  --      1.4943                 1.4573                 1.4697
 IR Inten    --      3.7203                 8.9844                 9.6129

                     16                     17                     18
                      A                      A                      A
 Frequencies --   2209.8931              3045.3308              3103.5676
 Red. masses --      5.9305                 1.0321                 1.0988
 Frc consts  --     17.0640                 5.6398                 6.2360
 IR Inten    --     20.9360                 9.4427                 7.6255

                     19                     20                     21
                      A                      A                      A
 Frequencies --   3105.7240              3305.6552              3502.6065
 Red. masses --      1.0987                 1.0676                 1.1597
 Frc consts  --      6.2440                 6.8737                 8.3828
 IR Inten    --      5.6490                16.4643                62.8444

 - Thermochemistry -
 -------------------
 Temperature   298.150 Kelvin.  Pressure   1.00000 Atm.
 Atom     1 has atomic number  6 and mass  12.00000

 Molecular mass:    57.03404 amu.
 Principal axes and moments of inertia in atomic units:
                           1         2         3
     Eigenvalues --   137.40482 383.80863 503.01223
           X            0.99800   0.06190   0.01314
           Y           -0.06160   0.99786  -0.02181
           Z           -0.01446   0.02095   0.99968
 This molecule is an asymmetric top.
 Rotational symmetry number  1.
 Rotational temperatures (Kelvin)      0.63035     0.22567     0.17219
 Rotational constants (GHZ):          13.13448     4.70219     3.58787
    1 imaginary frequencies ignored.
 Zero-point vibrational energy     174157.5 (Joules/Mol)
                                   41.62464 (Kcal/Mol)
 Warning -- explicit consideration of   6 degrees of freedom as
           vibrations may cause significant error
 Vibrational temperatures:    116.03   227.53   392.09   450.47   516.97
          (Kelvin)            836.29   978.12  1039.86  1328.62  1569.36
                             1594.26  2102.71  2219.77  2230.11  3179.54
                             4381.55  4465.34  4468.44  4756.09  5039.46

 Zero-point correction=                           0.066333 (Hartree/Particle)
 Thermal correction to Energy=                    0.072287
 Thermal correction to Enthalpy=                  0.073231
 Thermal correction to Gibbs Free Energy=         0.037080
 Sum of electronic and zero-point Energies=           -191.265137
 Sum of electronic and thermal Energies=              -191.259183
 Sum of electronic and thermal Enthalpies=            -191.258238
 Sum of electronic and thermal Free Energies=         -191.294390

                     E (Thermal)             CV                S
                      KCal/Mol        Cal/Mol-Kelvin    Cal/Mol-Kelvin
 Total                   45.361             18.721             76.087
 Electronic               0.000              0.000              1.377
 Translational            0.889              2.981             38.044
 Rotational               0.889              2.981             24.787
 Vibrational             43.583             12.760             11.878
 Vibration     1          0.600              1.962              3.875
 Vibration     2          0.621              1.894              2.572
 Vibration     3          0.676              1.724              1.580
 Vibration     4          0.701              1.649              1.346
 Vibration     5          0.734              1.556              1.125
 Vibration     6          0.938              1.072              0.483

 Normal termination of Gaussian 09 at Wed Jan  6 00:52:08 2021.
