 Gaussian 09, Revision D.01,
 Gaussian 09:  ES64L-G09RevD.01 24-Apr-2013

 ----------------------------------------------------------------------
 #P b3lyp/3-21G scf=qc opt(calcall, ts, noeigentest, cartesian,maxcycle
 =100) NoSymm
 ----------------------------------------------------------------------

 ------------------------------
 Gaussian input prepared by ASE
 ------------------------------
 Symbolic Z-matrix:
 Charge =  0 Multiplicity = 2

 SCF Done:  E(UB3LYP) =  -191.331471072     a.u. after    9 cycles
 SCF Done:  E(UB3LYP) =  -191.331471130     a.u. after    3 cycles
 Optimization completed.
    -- Stationary point found.

                          Input orientation:
 ---------------------------------------------------------------------
 Center     Atomic      Atomic             Coordinates (Angstroms)
 Number     Number       Type             X           Y           Z
 ---------------------------------------------------------------------
      1          6           0        0.374706    0.365328   -1.292944
      2          6           0       -0.233997   -0.450734   -0.245632
      3          1           0       -0.264873    0.397207   -2.182960
      4          1           0        1.353961   -0.029873   -1.587988
      5          1           0        0.506932    1.390429   -0.926853
      6          6           0       -0.747583   -1.073438    0.658930
      7          1           0       -1.235812   -1.682588    1.377011
      8          8           0       -0.353318    0.704228    2.045048
      9          1           0        0.599986    0.379441    2.155387
 ---------------------------------------------------------------------

 Alpha  occ. eigenvalues --  -19.02473 -10.14791 -10.14032 -10.12878  -0.93906
 Alpha  occ. eigenvalues --   -0.78957  -0.71530  -0.53626  -0.46432  -0.43990
 Alpha  occ. eigenvalues --   -0.43878  -0.39511  -0.34912  -0.27703  -0.25887
 Alpha  occ. eigenvalues --   -0.23952
 Alpha virt. eigenvalues --    0.05293   0.06038   0.11887   0.13770   0.15125
 Alpha virt. eigenvalues --    0.19440   0.19715   0.24718   0.48479   0.67590
 Alpha virt. eigenvalues --    0.69801   0.72179   0.78512   0.82209   0.88392

  Beta  occ. eigenvalues --  -19.00341 -10.14811 -10.13755 -10.12852  -0.88025
  Beta  occ. eigenvalues --   -0.78435  -0.71278  -0.53446  -0.46241  -0.43812
  Beta  occ. eigenvalues --   -0.43614  -0.37171  -0.28435  -0.27324  -0.23275
  Beta virt. eigenvalues --   -0.07346   0.05482   0.07112   0.12382   0.14295
  Beta virt. eigenvalues --    0.15295   0.19487   0.19955   0.25026   0.48608
  Beta virt. eigenvalues --    0.67740   0.69917   0.72998   0.78501   0.82685

 Mulliken charges and spin densities:
               1          2
     1  C   -0.667308  -0.016870
     2  C    0.124019   0.172355
     3  H    0.236761   0.003968
     4  H    0.229064   0.001616
     5  H    0.245799   0.012548
     6  C   -0.348050  -0.042692
     7  H    0.243869   0.003114
     8  O   -0.373944   0.899308
     9  H    0.309791  -0.033347
 Sum of Mulliken charges =   0.00000   1.00000

 Dipole moment (field-independent basis, Debye):
    X=              1.6697    Y=             -0.6409    Z=             -1.0388  Tot=              2.0683
 Quadrupole moment (field-independent basis, Debye-Ang):
   XX=            -23.5214   YY=            -23.9638   ZZ=            -22.1850
   XY=              2.3982   XZ=              1.7650   YZ=             -3.6446

  Exact polarizability:  25.411   5.752  29.770  -5.597  -1.198  46.221
 Approx polarizability:  35.077   9.223  42.411 -13.657  -6.010  66.059

 ******    1 imaginary frequencies (negative Signs) ******

                      1                      2                      3
                      A                      A                      A
 Frequencies --    -84.1140                91.1880               157.6193
 Red. masses --      5.0148                 1.0699                 9.6873
 Frc consts  --      0.0209                 0.0052                 0.1418
 IR Inten    --      6.5172                 0.0719                 1.6077

                      4                      5                      6
                      A                      A                      A
 Frequencies --    264.2684               312.5382               358.1667
 Red. masses --      1.1263                 3.4498                 2.6469
 Frc consts  --      0.0463                 0.1985                 0.2001
 IR Inten    --     67.3187                10.1231                15.6012

                      7                      8                      9
                      A                      A                      A
 Frequencies --    577.4318               679.1923               723.0719
 Red. masses --      1.0537                 1.1194                 1.2753
 Frc consts  --      0.2070                 0.3042                 0.3928
 IR Inten    --     88.1796                52.0109                49.9176

                     10                     11                     12
                      A                      A                      A
 Frequencies --    923.4602              1090.8603              1108.1206
 Red. masses --      4.7688                 1.4059                 1.4026
 Frc consts  --      2.3961                 0.9857                 1.0147
 IR Inten    --      0.4383                 1.4340                 4.7837

                     13                     14                     15
                      A                      A                      A
 Frequencies --   1461.4890              1543.4277              1550.1567
 Red. masses --      1.1874                 1.0393                 1.0382
 Frc consts  --      1.4943                 1.4586                 1.4699
 IR Inten    --      3.7314                 9.0111                 9.6052

                     16                     17                     18
                      A                      A                      A
 Frequencies --   2209.7306              3045.3301              3103.6451
 Red. masses --      5.9319                 1.0321                 1.0988
 Frc consts  --     17.0656                 5.6397                 6.2363
 IR Inten    --     20.9224                 9.4398                 7.6183

                     19                     20                     21
                      A                      A                      A
 Frequencies --   3105.7723              3306.0150              3502.7503
 Red. masses --      1.0987                 1.0676                 1.1597
 Frc consts  --      6.2443                 6.8752                 8.3830
 IR Inten    --      5.6533                16.4557                62.8156

 - Thermochemistry -
 -------------------
 Temperature   298.150 Kelvin.  Pressure   1.00000 Atm.
 Atom     1 has atomic number  6 and mass  12.00000

 Molecular mass:    57.03404 amu.
 Principal axes and moments of inertia in atomic units:
                           1         2         3
     Eigenvalues --   137.41619 383.80907 503.03073
           X           -0.21045   0.40707   0.88882
           Y            0.06587   0.91302  -0.40255
           Z            0.97538   0.02617   0.21896
 This molecule is an asymmetric top.
 Rotational symmetry number  1.
 Rotational temperatures (Kelvin)      0.63030     0.22567     0.17218
 Rotational constants (GHZ):          13.13340     4.70218     3.58774
    1 imaginary frequencies ignored.
 Zero-point vibrational energy     174141.8 (Joules/Mol)
                                   41.62089 (Kcal/Mol)
 Warning -- explicit consideration of   6 degrees of freedom as
           vibrations may cause significant error
 Vibrational temperatures:    131.20   226.78   380.22   449.67   515.32
          (Kelvin)            830.79   977.20  1040.34  1328.65  1569.50
                             1594.34  2102.75  2220.65  2230.33  3179.31
                             4381.55  4465.45  4468.51  4756.61  5039.67

 Zero-point correction=                           0.066327 (Hartree/Particle)
 Thermal correction to Energy=                    0.072277
 Thermal correction to Enthalpy=                  0.073221
 Thermal correction to Gibbs Free Energy=         0.037148
 Sum of electronic and zero-point Energies=           -191.265144
 Sum of electronic and thermal Energies=              -191.259194
 Sum of electronic and thermal Enthalpies=            -191.258250
 Sum of electronic and thermal Free Energies=         -191.294323

                     E (Thermal)             CV                S
                      KCal/Mol        Cal/Mol-Kelvin    Cal/Mol-Kelvin
 Total                   45.354             18.742             75.922
 Electronic               0.000              0.000              1.377
 Translational            0.889              2.981             38.044
 Rotational               0.889              2.981             24.787
 Vibrational             43.577             12.780             11.713
 Vibration     1          0.602              1.955              3.634
 Vibration     2          0.621              1.894              2.578
 Vibration     3          0.671              1.738              1.633
 Vibration     4          0.701              1.650              1.349
 Vibration     5          0.733              1.558              1.130
 Vibration     6          0.934              1.080              0.490

 Normal termination of Gaussian 09 at Wed Jan  6 01:05:37 2021.
