 Gaussian 09, Revision D.01,
 Gaussian 09:  ES64L-G09RevD.01 24-Apr-2013

 ----------------------------------------------------------------------
 #P upm6 scf=qc opt(calcall, ts, noeigentest, cartesian,maxcycle=100) N
 oSymm, guess=mix
 ----------------------------------------------------------------------

 ------------------------------
 Gaussian input prepared by ASE
 ------------------------------
 Symbolic Z-matrix:
 Charge =  0 Multiplicity = 2

 SCF Done:  E(UPM6) = -0.125470028611     a.u. after   14 cycles
 SCF Done:  E(UPM6) = -0.125975324080     a.u. after    4 cycles
 SCF Done:  E(UPM6) = -0.126260799988     a.u. after    4 cycles
 SCF Done:  E(UPM6) = -0.126476565096     a.u. after    4 cycles
 SCF Done:  E(UPM6) = -0.126604917390     a.u. after    4 cycles
 SCF Done:  E(UPM6) = -0.126676921380     a.u. after    4 cycles
 SCF Done:  E(UPM6) = -0.126699425750     a.u. after    4 cycles
 SCF Done:  E(UPM6) = -0.126693469772     a.u. after    4 cycles
 SCF Done:  E(UPM6) = -0.126678967190     a.u. after    4 cycles
 SCF Done:  E(UPM6) = -0.126664013289     a.u. after    4 cycles
 SCF Done:  E(UPM6) = -0.127974255223     a.u. after    4 cycles
 SCF Done:  E(UPM6) = -0.127993871549     a.u. after    4 cycles
 SCF Done:  E(UPM6) = -0.128009215011     a.u. after    4 cycles
 SCF Done:  E(UPM6) = -0.128019195940     a.u. after    4 cycles
 SCF Done:  E(UPM6) = -0.128024637560     a.u. after    4 cycles
 SCF Done:  E(UPM6) = -0.128026953784     a.u. after    4 cycles
 SCF Done:  E(UPM6) = -0.128027745638     a.u. after    4 cycles
 SCF Done:  E(UPM6) = -0.128027936963     a.u. after    3 cycles
 SCF Done:  E(UPM6) = -0.128027961107     a.u. after    3 cycles
 SCF Done:  E(UPM6) = -0.128027961788     a.u. after    3 cycles
 Optimization completed.
    -- Stationary point found.

                          Input orientation:
 ---------------------------------------------------------------------
 Center     Atomic      Atomic             Coordinates (Angstroms)
 Number     Number       Type             X           Y           Z
 ---------------------------------------------------------------------
      1          8           0       -3.120747   -0.919448    0.292348
      2          6           0       -3.116719   -0.030488    1.112072
      3          6           0       -1.864435    0.669343    1.592577
      4          6           0       -0.613558    0.293539    0.792845
      5          6           0       -0.617315    0.884437   -0.626226
      6          6           0        0.654925    1.638397   -0.961405
      7          1           0        1.122273    2.142298   -0.091008
      8          6           0        0.450668    2.616633   -2.115046
      9          8           0        0.139169    3.761424   -1.879299
     10          6           0        0.647397    2.088959   -3.498304
     11          1           0       -4.050917    0.327700    1.577139
     12          1           0       -2.017784    1.768506    1.574896
     13          1           0       -1.710597    0.418673    2.664326
     14          1           0        0.286415    0.613966    1.351986
     15          1           0       -0.546216   -0.814146    0.722939
     16          1           0       -0.746203    0.057719   -1.365466
     17          1           0       -1.499065    1.541492   -0.772675
     18          1           0        1.709222    2.129403   -3.787666
     19          1           0        0.337466    1.037357   -3.602026
     20          1           0        0.094247    2.685020   -4.239334
     21          8           0        1.511397   -0.267970   -1.990564
     22          8           0        1.787700    0.656404   -1.304314
 ---------------------------------------------------------------------

 Alpha  occ. eigenvalues --   -1.27132  -1.18227  -1.17704  -1.12309  -1.06377
 Alpha  occ. eigenvalues --   -1.01081  -0.96526  -0.88693  -0.81112  -0.75585
 Alpha  occ. eigenvalues --   -0.73047  -0.67925  -0.67217  -0.66655  -0.63269
 Alpha  occ. eigenvalues --   -0.60123  -0.58317  -0.58156  -0.55769  -0.55358
 Alpha  occ. eigenvalues --   -0.52799  -0.51934  -0.50867  -0.49713  -0.49049
 Alpha  occ. eigenvalues --   -0.47475  -0.46035  -0.44372  -0.40824  -0.39561
 Alpha  occ. eigenvalues --   -0.37775  -0.37495
 Alpha virt. eigenvalues --   -0.00461   0.00901   0.01474   0.09070   0.09408
 Alpha virt. eigenvalues --    0.10865   0.11868   0.12663   0.13662   0.14166
 Alpha virt. eigenvalues --    0.15718   0.16004   0.17391   0.17730   0.18382

  Beta  occ. eigenvalues --   -1.19671  -1.18240  -1.17702  -1.07358  -1.03412
  Beta  occ. eigenvalues --   -0.99806  -0.96241  -0.88283  -0.80789  -0.74360
  Beta  occ. eigenvalues --   -0.72856  -0.66346  -0.63672  -0.63360  -0.61145
  Beta  occ. eigenvalues --   -0.59229  -0.58122  -0.55988  -0.55078  -0.53717
  Beta  occ. eigenvalues --   -0.52225  -0.51865  -0.50747  -0.49583  -0.49027
  Beta  occ. eigenvalues --   -0.47226  -0.45976  -0.44319  -0.38799  -0.37749
  Beta  occ. eigenvalues --   -0.35797
  Beta virt. eigenvalues --   -0.00534   0.00661   0.00902   0.03163   0.09154
  Beta virt. eigenvalues --    0.10834   0.11721   0.12147   0.12895   0.13868
  Beta virt. eigenvalues --    0.14200   0.15718   0.15991   0.17390   0.17725

 Mulliken charges and spin densities:
               1          2
     1  O   -0.455800  -0.000002
     2  C    0.407648  -0.000009
     3  C   -0.448400   0.000152
     4  C   -0.205087  -0.000852
     5  C   -0.269539   0.012194
     6  C   -0.255777  -0.160670
     7  H    0.178855   0.003049
     8  C    0.567360   0.015437
     9  O   -0.474644  -0.002030
    10  C   -0.634822   0.002199
    11  H    0.088948   0.000001
    12  H    0.175098  -0.000006
    13  H    0.173852  -0.000015
    14  H    0.132225   0.000156
    15  H    0.153935   0.000128
    16  H    0.172100  -0.002732
    17  H    0.155675  -0.003568
    18  H    0.202352  -0.000001
    19  H    0.203686  -0.000239
    20  H    0.199870   0.000210
    21  O   -0.211566   0.654708
    22  O    0.144031   0.481889
 Sum of Mulliken charges =   0.00000   1.00000

 Dipole moment (field-independent basis, Debye):
    X=              0.2360    Y=              0.5651    Z=              2.0950  Tot=              2.1827
 N-N= 3.856983127677D+02 E-N=-6.911599143586D+02  KE=-3.732105711304D+01
  Exact polarizability:  57.202  -7.903  82.533  -5.419  15.138  61.979
 Approx polarizability:  36.237  -6.697  64.155  -1.530  18.135  43.461
 Leave Link  601 at Thu Feb  4 08:43:06 2021, MaxMem=    33554432 cpu:         0.1
 (Enter /apps/applications/gaussian/G09.D01/2/default/g09/l716.exe)
 Dipole        = 9.28630445D-02 2.22330357D-01 8.24230943D-01
 Polarizability= 5.72015607D+01-7.90264937D+00 8.25334933D+01
                -5.41928769D+00 1.51383947D+01 6.19788063D+01
 HyperPolar    = 1.96656634D+01 3.31873436D+01-1.39295731D+01
                 2.10294344D+01 1.52001431D-01-3.43879077D+01

 ******    1 imaginary frequencies (negative Signs) ******

                      1                      2                      3
                      A                      A                      A
 Frequencies --    -43.5122                17.7399                21.7209
 Red. masses --      4.2856                 4.8607                 3.8477
 Frc consts  --      0.0048                 0.0009                 0.0011
 IR Inten    --      2.1051                 8.1291                10.2970

                      4                      5                      6
                      A                      A                      A
 Frequencies --     33.4267                65.2845                81.5936
 Red. masses --      3.8581                 1.1530                 2.0765
 Frc consts  --      0.0025                 0.0029                 0.0081
 IR Inten    --      0.2621                 3.0033                 6.2841

                      7                      8                      9
                      A                      A                      A
 Frequencies --     92.8169               174.6142               187.3690
 Red. masses --      7.0726                 5.4166                 3.3918
 Frc consts  --      0.0359                 0.0973                 0.0702
 IR Inten    --      2.0883                 4.5185                 0.5273

                     10                     11                     12
                      A                      A                      A
 Frequencies --    203.2125               260.4976               312.9869
 Red. masses --      3.8192                 3.9755                 2.8212
 Frc consts  --      0.0929                 0.1589                 0.1628
 IR Inten    --      1.6851                 7.4740                 2.3630

                     13                     14                     15
                      A                      A                      A
 Frequencies --    375.1229               378.4092               503.5456
 Red. masses --      6.3751                 2.7447                 3.4968
 Frc consts  --      0.5286                 0.2316                 0.5224
 IR Inten    --      3.4182                10.2744                19.7413

                     16                     17                     18
                      A                      A                      A
 Frequencies --    587.0764               615.7781               665.2230
 Red. masses --      2.9094                 2.9628                 4.0001
 Frc consts  --      0.5908                 0.6619                 1.0429
 IR Inten    --      2.0625                19.0304                 8.0580

                     19                     20                     21
                      A                      A                      A
 Frequencies --    743.0175               804.9951               862.7241
 Red. masses --      1.3631                 4.5425                 1.9567
 Frc consts  --      0.4434                 1.7343                 0.8581
 IR Inten    --     27.7564                24.4290                22.6300

                     22                     23                     24
                      A                      A                      A
 Frequencies --    928.0160               941.1982               969.4534
 Red. masses --      2.0780                 2.4051                 1.9338
 Frc consts  --      1.0544                 1.2553                 1.0708
 IR Inten    --     21.1123                14.3232                 6.7144

                     25                     26                     27
                      A                      A                      A
 Frequencies --   1012.5086              1019.4551              1024.7810
 Red. masses --      1.7250                 1.6149                 1.7607
 Frc consts  --      1.0419                 0.9889                 1.0894
 IR Inten    --     41.6140                33.8410                 8.4108

                     28                     29                     30
                      A                      A                      A
 Frequencies --   1088.3747              1097.4707              1112.8542
 Red. masses --      1.6101                 1.7698                 1.6688
 Frc consts  --      1.1237                 1.2559                 1.2177
 IR Inten    --     38.9079                17.8370                23.2661

                     31                     32                     33
                      A                      A                      A
 Frequencies --   1130.9729              1163.5983              1183.7262
 Red. masses --      1.4640                 1.4888                 1.3382
 Frc consts  --      1.1033                 1.1877                 1.1048
 IR Inten    --     28.8253                60.1870                16.8403

                     34                     35                     36
                      A                      A                      A
 Frequencies --   1196.6027              1203.2684              1212.9636
 Red. masses --      1.6619                 1.1675                 1.3022
 Frc consts  --      1.4020                 0.9959                 1.1288
 IR Inten    --      9.5124                45.6786                74.8176

                     37                     38                     39
                      A                      A                      A
 Frequencies --   1222.6780              1231.9982              1237.0718
 Red. masses --      1.4945                 1.7099                 1.3434
 Frc consts  --      1.3163                 1.5291                 1.2113
 IR Inten    --     95.9961                69.6876                61.8202

                     40                     41                     42
                      A                      A                      A
 Frequencies --   1252.6989              1265.6106              1273.5369
 Red. masses --      1.1341                 1.2483                 1.8974
 Frc consts  --      1.0485                 1.1780                 1.8131
 IR Inten    --     28.3593                32.1935               118.6657

                     43                     44                     45
                      A                      A                      A
 Frequencies --   1277.8659              1305.8189              1317.0161
 Red. masses --      1.8523                 1.4499                 1.2680
 Frc consts  --      1.7821                 1.4567                 1.2959
 IR Inten    --    135.7254                 6.5968               171.2902

                     46                     47                     48
                      A                      A                      A
 Frequencies --   1322.4730              1326.2107              1795.8191
 Red. masses --      1.4709                 1.4743                11.0676
 Frc consts  --      1.5157                 1.5278                21.0295
 IR Inten    --     20.2212                23.1714               191.8948

                     49                     50                     51
                      A                      A                      A
 Frequencies --   1803.4004              2641.7391              2644.5439
 Red. masses --     12.0063                 1.0694                 1.0787
 Frc consts  --     23.0061                 4.3973                 4.4450
 IR Inten    --    374.5787                 2.7763                19.3019

                     52                     53                     54
                      A                      A                      A
 Frequencies --   2660.1761              2668.4416              2676.0945
 Red. masses --      1.0818                 1.0871                 1.0860
 Frc consts  --      4.5103                 4.5606                 4.5823
 IR Inten    --     40.1919                73.6739               125.7594

                     55                     56                     57
                      A                      A                      A
 Frequencies --   2687.2048              2696.1895              2726.5078
 Red. masses --      1.0885                 1.0654                 1.0466
 Frc consts  --      4.6310                 4.5631                 4.5841
 IR Inten    --    112.8603                80.3650                26.1924

                     58                     59                     60
                      A                      A                      A
 Frequencies --   2738.4143              2740.5596              2782.9804
 Red. masses --      1.0502                 1.0569                 1.0316
 Frc consts  --      4.6398                 4.6767                 4.7076
 IR Inten    --     94.5984                52.4305                71.2322

 - Thermochemistry -
 -------------------
 Temperature   298.150 Kelvin.  Pressure   1.00000 Atm.
 Atom     1 has atomic number  8 and mass  15.99491

 Molecular mass:   159.06573 amu.
 Principal axes and moments of inertia in atomic units:
                           1         2         3
     Eigenvalues --  1078.538693212.747673583.27133
           X            0.66447  -0.50709   0.54894
           Y            0.40401   0.86171   0.30697
           Z           -0.62869   0.01780   0.77745
 This molecule is an asymmetric top.
 Rotational symmetry number  1.
 Warning -- assumption of classical behavior for rotation
           may cause significant error
 Rotational temperatures (Kelvin)      0.08031     0.02696     0.02417
 Rotational constants (GHZ):           1.67332     0.56174     0.50366
    1 imaginary frequencies ignored.
 Zero-point vibrational energy     422087.1 (Joules/Mol)
                                  100.88123 (Kcal/Mol)
 Warning -- explicit consideration of  16 degrees of freedom as
           vibrations may cause significant error
 Vibrational temperatures:     25.52    31.25    48.09    93.93   117.39
          (Kelvin)            133.54   251.23   269.58   292.38   374.80
                              450.32   539.72   544.45   724.49   844.67
                              885.97   957.11  1069.04  1158.21  1241.27
                             1335.21  1354.17  1394.83  1456.77  1466.77
                             1474.43  1565.93  1579.01  1601.15  1627.22
                             1674.16  1703.12  1721.64  1731.23  1745.18
                             1759.16  1772.57  1779.87  1802.35  1820.93
                             1832.33  1838.56  1878.78  1894.89  1902.74
                             1908.12  2583.78  2594.69  3800.87  3804.90
                             3827.40  3839.29  3850.30  3866.28  3879.21
                             3922.83  3939.96  3943.05  4004.08

 Zero-point correction=                           0.160764 (Hartree/Particle)
 Thermal correction to Energy=                    0.173335
 Thermal correction to Enthalpy=                  0.174279
 Thermal correction to Gibbs Free Energy=         0.117332
 Sum of electronic and zero-point Energies=              0.032737
 Sum of electronic and thermal Energies=                 0.045307
 Sum of electronic and thermal Enthalpies=               0.046251
 Sum of electronic and thermal Free Energies=           -0.010696

                     E (Thermal)             CV                S
                      KCal/Mol        Cal/Mol-Kelvin    Cal/Mol-Kelvin
 Total                  108.769             42.318            119.856
 Electronic               0.000              0.000              1.377
 Translational            0.889              2.981             41.102
 Rotational               0.889              2.981             30.897
 Vibrational            106.992             36.356             46.481
 Vibration     1          0.593              1.986              6.872
 Vibration     2          0.593              1.985              6.470
 Vibration     3          0.594              1.983              5.615
 Vibration     4          0.597              1.971              4.291
 Vibration     5          0.600              1.962              3.852
 Vibration     6          0.602              1.954              3.600
 Vibration     7          0.627              1.874              2.385
 Vibration     8          0.632              1.857              2.254
 Vibration     9          0.639              1.835              2.104
 Vibration    10          0.669              1.745              1.658
 Vibration    11          0.701              1.649              1.346
 Vibration    12          0.746              1.523              1.059
 Vibration    13          0.749              1.516              1.046
 Vibration    14          0.859              1.242              0.649
 Vibration    15          0.944              1.059              0.472
 Vibration    16          0.975              0.999              0.423

 Normal termination of Gaussian 09 at Thu Feb  4 08:43:06 2021.
