 Gaussian 09, Revision D.01,
 Gaussian 09:  ES64L-G09RevD.01 24-Apr-2013

 ----------------------------------------------------------------------
 #P pm6 scf=qc opt(calcall, ts, noeigentest, cartesian,maxcycle=100) No
 Symm
 ----------------------------------------------------------------------

 ------------------------------
 Gaussian input prepared by ASE
 ------------------------------
 Symbolic Z-matrix:
 Charge =  0 Multiplicity = 2

 SCF Done:  E(UPM6) = -0.113753208205     a.u. after   12 cycles

 Alpha  occ. eigenvalues --   -1.25602  -1.18214  -1.11770  -1.07543  -1.02212
 Alpha  occ. eigenvalues --   -1.01299  -0.96467  -0.86991  -0.81931  -0.73119
 Alpha  occ. eigenvalues --   -0.69963  -0.66854  -0.64221  -0.63470  -0.59128
 Alpha  occ. eigenvalues --   -0.58600  -0.57242  -0.57106  -0.55607  -0.54371
 Alpha  occ. eigenvalues --   -0.53465  -0.52733  -0.50885  -0.50080  -0.48341
 Alpha  occ. eigenvalues --   -0.47701  -0.47042  -0.45369  -0.41835  -0.40322
 Alpha  occ. eigenvalues --   -0.37459  -0.34078
 Alpha virt. eigenvalues --   -0.00394   0.00868   0.02960   0.08321   0.08423
 Alpha virt. eigenvalues --    0.09746   0.11347   0.12329   0.12839   0.13829
 Alpha virt. eigenvalues --    0.14275   0.15977   0.17096   0.17760   0.18473

  Beta  occ. eigenvalues --   -1.25504  -1.18172  -1.11460  -1.01986  -1.00563
  Beta  occ. eigenvalues --   -0.96426  -0.94011  -0.86684  -0.81839  -0.72976
  Beta  occ. eigenvalues --   -0.69791  -0.66004  -0.64004  -0.63219  -0.58907
  Beta  occ. eigenvalues --   -0.58289  -0.57107  -0.55615  -0.53778  -0.52742
  Beta  occ. eigenvalues --   -0.51944  -0.50774  -0.50073  -0.49556  -0.48103
  Beta  occ. eigenvalues --   -0.47389  -0.45145  -0.42354  -0.37567  -0.34973
  Beta  occ. eigenvalues --   -0.34261
  Beta virt. eigenvalues --   -0.03167  -0.00210   0.01253   0.03595   0.08456
  Beta virt. eigenvalues --    0.08609   0.09823   0.11368   0.12444   0.12889
  Beta virt. eigenvalues --    0.13895   0.14410   0.15982   0.17210   0.17819

 Mulliken charges and spin densities:
               1          2
     1  O   -0.313408   0.008928
     2  C    0.701479  -0.011939
     3  C   -0.668559   0.079939
     4  C   -0.128927  -0.003944
     5  C   -0.367093   0.001037
     6  C    0.025745  -0.012543
     7  H    0.164488   0.000561
     8  C    0.557522   0.000317
     9  O   -0.481050   0.000100
    10  C   -0.633788  -0.000230
    11  H    0.275013  -0.063628
    12  H    0.445203  -0.015673
    13  H    0.210204   0.000945
    14  H    0.146693   0.000382
    15  H    0.127906   0.000964
    16  H    0.156448   0.000178
    17  H    0.156316  -0.000072
    18  H    0.187409  -0.000001
    19  H    0.212375   0.000008
    20  H    0.200017   0.000003
    21  O   -0.423680   0.905164
    22  O   -0.550311   0.109503
 Sum of Mulliken charges =   0.00000   1.00000

 Dipole moment (field-independent basis, Debye):
    X=              3.2409    Y=              1.1982    Z=             -0.1445  Tot=              3.4583
 N-N= 4.065836567638D+02 E-N=-7.335993191596D+02  KE=-3.737312804841D+01
  Exact polarizability:  52.631   3.914  97.269  -0.364   4.083  86.539
 Approx polarizability:  38.645  -4.257  65.262   1.353  -4.088  61.969
 Leave Link  601 at Thu Feb 18 21:41:02 2021, MaxMem=    33554432 cpu:         0.0
 (Enter /apps/applications/gaussian/G09.D01/2/default/g09/l701.exe)
 Compute integral second derivatives.
 ... and contract with generalized density number  0.
 Leave Link  701 at Thu Feb 18 21:41:02 2021, MaxMem=    33554432 cpu:         0.1
 (Enter /apps/applications/gaussian/G09.D01/2/default/g09/l702.exe)
 L702 exits ... SP integral derivatives will be done elsewhere.

 Optimization completed.
    -- Stationary point found.

                          Input orientation:
 ---------------------------------------------------------------------
 Center     Atomic      Atomic             Coordinates (Angstroms)
 Number     Number       Type             X           Y           Z
 ---------------------------------------------------------------------
      1          8           0       -0.638111    0.347987    3.161744
      2          6           0       -0.653454    0.866831    2.117597
      3          6           0       -0.712161    1.848849    1.124673
      4          6           0        0.532588    1.964048    0.262341
      5          6           0        1.293098    0.622327    0.193637
      6          6           0        0.337602   -0.579697    0.065892
      7          1           0        0.774460   -1.527217    0.442071
      8          6           0       -0.199504   -0.691822   -1.379567
      9          8           0       -1.049351    0.085056   -1.754132
     10          6           0        0.374279   -1.781208   -2.219663
     11          1           0       -1.933523   -2.045568    1.711387
     12          1           0       -1.379495    0.776482    0.275734
     13          1           0       -1.303334    2.743087    1.264958
     14          1           0        0.233159    2.283530   -0.758511
     15          1           0        1.198424    2.756086    0.656835
     16          1           0        2.009495    0.635799   -0.648907
     17          1           0        1.913536    0.496480    1.102756
     18          1           0        1.467044   -1.841405   -2.164118
     19          1           0       -0.023548   -2.758198   -1.889585
     20          1           0        0.092348   -1.669585   -3.278000
     21          8           0       -1.478591   -2.194386    0.870927
     22          8           0       -0.854959   -0.337477    0.841929
 ---------------------------------------------------------------------

 ******    1 imaginary frequencies (negative Signs) ******

                      1                      2                      3
                      A                      A                      A
 Frequencies --  -1400.8283                30.6898                63.3807
 Red. masses --      1.2095                 4.0279                 4.3499
 Frc consts  --      1.3984                 0.0022                 0.0103
 IR Inten    --   1237.4004                10.4170                 3.3108

                      4                      5                      6
                      A                      A                      A
 Frequencies --     71.7279                90.8500               106.7303
 Red. masses --      5.1392                 2.8805                 1.2298
 Frc consts  --      0.0156                 0.0140                 0.0083
 IR Inten    --     15.3314                13.6817                11.6456

                      7                      8                      9
                      A                      A                      A
 Frequencies --    114.0189               136.9893               169.2029
 Red. masses --      2.1335                 2.5372                 3.4206
 Frc consts  --      0.0163                 0.0281                 0.0577
 IR Inten    --     25.2031                52.9668                83.4270

                     10                     11                     12
                      A                      A                      A
 Frequencies --    187.5022               205.5704               271.0722
 Red. masses --      6.5099                 2.9762                 2.5994
 Frc consts  --      0.1348                 0.0741                 0.1125
 IR Inten    --     36.4087                 4.2940                13.8776

                     13                     14                     15
                      A                      A                      A
 Frequencies --    305.1357               424.4780               437.0876
 Red. masses --      3.3575                 8.5009                 4.3384
 Frc consts  --      0.1842                 0.9025                 0.4883
 IR Inten    --      0.9079                72.6469               124.6765

                     16                     17                     18
                      A                      A                      A
 Frequencies --    485.2252               500.3800               589.6725
 Red. masses --      6.0351                 3.9177                 2.6626
 Frc consts  --      0.8372                 0.5779                 0.5455
 IR Inten    --    449.8958               231.3428                 0.9920

                     19                     20                     21
                      A                      A                      A
 Frequencies --    623.9842               632.7664               660.4228
 Red. masses --      1.5806                 3.5703                 2.6752
 Frc consts  --      0.3626                 0.8423                 0.6875
 IR Inten    --     12.7781               122.3884                28.9765

                     22                     23                     24
                      A                      A                      A
 Frequencies --    703.7569               778.6155               855.4928
 Red. masses --      2.7529                 1.3736                 1.9424
 Frc consts  --      0.8033                 0.4906                 0.8376
 IR Inten    --     28.3269                59.6083                13.4666

                     25                     26                     27
                      A                      A                      A
 Frequencies --    919.6179               970.4600               987.6224
 Red. masses --      2.0186                 2.1981                 1.6826
 Frc consts  --      1.0058                 1.2197                 0.9670
 IR Inten    --      8.8555                22.0110                25.9903

                     28                     29                     30
                      A                      A                      A
 Frequencies --   1016.3009              1027.9700              1045.0481
 Red. masses --      1.6368                 2.1429                 1.9263
 Frc consts  --      0.9961                 1.3342                 1.2395
 IR Inten    --     37.2790                52.9017                35.1429

                     31                     32                     33
                      A                      A                      A
 Frequencies --   1079.9937              1118.9793              1125.2341
 Red. masses --      2.6566                 1.2142                 1.1581
 Frc consts  --      1.8257                 0.8958                 0.8639
 IR Inten    --    104.8579                 5.3464                30.7404

                     34                     35                     36
                      A                      A                      A
 Frequencies --   1146.0375              1185.4490              1188.8517
 Red. masses --      1.2194                 1.9829                 1.9897
 Frc consts  --      0.9436                 1.6418                 1.6569
 IR Inten    --     81.0598                39.0147                68.4630

                     37                     38                     39
                      A                      A                      A
 Frequencies --   1195.8926              1208.4046              1213.0476
 Red. masses --      1.2900                 1.2091                 1.4136
 Frc consts  --      1.0870                 1.0402                 1.2256
 IR Inten    --     37.0390                79.4735               133.6246

                     40                     41                     42
                      A                      A                      A
 Frequencies --   1220.4912              1264.1042              1272.7445
 Red. masses --      1.0967                 2.1710                 1.2669
 Frc consts  --      0.9625                 2.0439                 1.2091
 IR Inten    --     76.2246               103.9149                 5.5558

                     43                     44                     45
                      A                      A                      A
 Frequencies --   1276.4134              1291.7677              1313.1890
 Red. masses --      1.2280                 1.7198                 1.8666
 Frc consts  --      1.1788                 1.6909                 1.8965
 IR Inten    --     31.9661                47.9655                85.4149

                     46                     47                     48
                      A                      A                      A
 Frequencies --   1317.7986              1334.7955              1791.0073
 Red. masses --      1.3638                 1.7324                 6.9423
 Frc consts  --      1.3954                 1.8185                13.1204
 IR Inten    --    186.3983                33.5938               128.5952

                     49                     50                     51
                      A                      A                      A
 Frequencies --   1919.7277              2105.8451              2617.5386
 Red. masses --      1.2187                 6.1891                 1.0672
 Frc consts  --      2.6462                16.1707                 4.3080
 IR Inten    --    632.3115               389.0464               159.4960

                     52                     53                     54
                      A                      A                      A
 Frequencies --   2657.4895              2674.5612              2675.0275
 Red. masses --      1.0809                 1.0876                 1.0854
 Frc consts  --      4.4974                 4.5837                 4.5761
 IR Inten    --      6.6953                57.6167               129.9882

                     55                     56                     57
                      A                      A                      A
 Frequencies --   2690.9077              2694.8092              2733.5252
 Red. masses --      1.0704                 1.0876                 1.0487
 Frc consts  --      4.5667                 4.6533                 4.6169
 IR Inten    --     70.4422               123.6854                36.5452

                     58                     59                     60
                      A                      A                      A
 Frequencies --   2744.8762              2763.0509              2785.0610
 Red. masses --      1.0496                 1.0712                 1.0318
 Frc consts  --      4.6591                 4.8183                 4.7154
 IR Inten    --     57.7397               228.8423                89.6552

 - Thermochemistry -
 -------------------
 Temperature   298.150 Kelvin.  Pressure   1.00000 Atm.
 Atom     1 has atomic number  8 and mass  15.99491

 Molecular mass:   159.06573 amu.
 Principal axes and moments of inertia in atomic units:
                           1         2         3
     Eigenvalues --  1138.428701935.879772505.89824
           X           -0.07886   0.44081   0.89413
           Y            0.48375   0.80116  -0.35231
           Z            0.87165  -0.40475   0.27642
 This molecule is an asymmetric top.
 Rotational symmetry number  1.
 Warning -- assumption of classical behavior for rotation
           may cause significant error
 Rotational temperatures (Kelvin)      0.07608     0.04474     0.03456
 Rotational constants (GHZ):           1.58529     0.93226     0.72020
    1 imaginary frequencies ignored.
 Zero-point vibrational energy     406840.3 (Joules/Mol)
                                   97.23717 (Kcal/Mol)
 Warning -- explicit consideration of  17 degrees of freedom as
           vibrations may cause significant error
 Vibrational temperatures:     44.16    91.19   103.20   130.71   153.56
          (Kelvin)            164.05   197.10   243.44   269.77   295.77
                              390.01   439.02   610.73   628.87   698.13
                              719.93   848.41   897.77   910.41   950.20
                             1012.55  1120.25  1230.86  1323.12  1396.27
                             1420.97  1462.23  1479.02  1503.59  1553.87
                             1609.96  1618.96  1648.89  1705.59  1710.49
                             1720.62  1738.62  1745.30  1756.01  1818.76
                             1831.19  1836.47  1858.56  1889.38  1896.02
                             1920.47  2576.86  2762.06  3029.84  3766.05
                             3823.53  3848.09  3848.76  3871.61  3877.22
                             3932.93  3949.26  3975.41  4007.08

 Zero-point correction=                           0.154957 (Hartree/Particle)
 Thermal correction to Energy=                    0.168097
 Thermal correction to Enthalpy=                  0.169041
 Thermal correction to Gibbs Free Energy=         0.113814
 Sum of electronic and zero-point Energies=              0.041204
 Sum of electronic and thermal Energies=                 0.054344
 Sum of electronic and thermal Enthalpies=               0.055288
 Sum of electronic and thermal Free Energies=            0.000061

                     E (Thermal)             CV                S
                      KCal/Mol        Cal/Mol-Kelvin    Cal/Mol-Kelvin
 Total                  105.482             45.624            116.235
 Electronic               0.000              0.000              1.377
 Translational            0.889              2.981             41.102
 Rotational               0.889              2.981             30.092
 Vibrational            103.705             39.663             43.665
 Vibration     1          0.594              1.984              5.784
 Vibration     2          0.597              1.972              4.349
 Vibration     3          0.598              1.967              4.105
 Vibration     4          0.602              1.956              3.642
 Vibration     5          0.606              1.944              3.328
 Vibration     6          0.607              1.938              3.199
 Vibration     7          0.614              1.916              2.846
 Vibration     8          0.625              1.880              2.444
 Vibration     9          0.632              1.857              2.252
 Vibration    10          0.640              1.832              2.083
 Vibration    11          0.675              1.727              1.589
 Vibration    12          0.696              1.664              1.389
 Vibration    13          0.786              1.417              0.877
 Vibration    14          0.797              1.389              0.836
 Vibration    15          0.841              1.283              0.696
 Vibration    16          0.856              1.249              0.657
 Vibration    17          0.947              1.054              0.468

 Normal termination of Gaussian 09 at Thu Feb 18 21:41:02 2021.
