 Gaussian 09, Revision D.01,
 Gaussian 09:  ES64L-G09RevD.01 24-Apr-2013

 ----------------------------------------------------------------------
 #P pm6 scf=qc opt(calcall, ts, noeigentest, cartesian,maxcycle=100) No
 Symm
 ----------------------------------------------------------------------

 ------------------------------
 Gaussian input prepared by ASE
 ------------------------------
 Symbolic Z-matrix:
 Charge =  0 Multiplicity = 2

 SCF Done:  E(UPM6) =  0.284905781314E-02 a.u. after   17 cycles
 SCF Done:  E(UPM6) =  0.416651667024E-03 a.u. after    5 cycles
 SCF Done:  E(UPM6) = -0.121489985253E-02 a.u. after    4 cycles
 SCF Done:  E(UPM6) = -0.230105254445E-02 a.u. after    5 cycles
 SCF Done:  E(UPM6) = -0.307818080705E-02 a.u. after    4 cycles
 SCF Done:  E(UPM6) = -0.358909655654E-02 a.u. after    4 cycles
 SCF Done:  E(UPM6) = -0.402330343616E-02 a.u. after    4 cycles
 SCF Done:  E(UPM6) = -0.436087023411E-02 a.u. after    4 cycles
 SCF Done:  E(UPM6) = -0.463907896471E-02 a.u. after    4 cycles
 SCF Done:  E(UPM6) = -0.487681809579E-02 a.u. after    4 cycles
 SCF Done:  E(UPM6) = -0.774491370100E-02 a.u. after    4 cycles
 SCF Done:  E(UPM6) = -0.775651964022E-02 a.u. after    4 cycles
 SCF Done:  E(UPM6) = -0.776465900788E-02 a.u. after    4 cycles
 SCF Done:  E(UPM6) = -0.777052735299E-02 a.u. after    4 cycles
 SCF Done:  E(UPM6) = -0.777407905508E-02 a.u. after    4 cycles
 SCF Done:  E(UPM6) = -0.777663907002E-02 a.u. after    4 cycles
 SCF Done:  E(UPM6) = -0.777772329229E-02 a.u. after    4 cycles
 SCF Done:  E(UPM6) = -0.777890922336E-02 a.u. after    3 cycles
 SCF Done:  E(UPM6) = -0.777893112348E-02 a.u. after    4 cycles
 SCF Done:  E(UPM6) = -0.777955601325E-02 a.u. after    3 cycles
 Optimization completed on the basis of negligible forces.
    -- Stationary point found.

                          Input orientation:
 ---------------------------------------------------------------------
 Center     Atomic      Atomic             Coordinates (Angstroms)
 Number     Number       Type             X           Y           Z
 ---------------------------------------------------------------------
      1          8           0       -2.169854    5.101549    1.014606
      2          6           0       -1.041254    5.378687    0.677637
      3          6           0       -0.500738    5.183965   -0.720864
      4          6           0       -1.575879    4.896165   -1.772980
      5          6           0       -2.274905    3.540466   -1.574098
      6          6           0       -1.407608    2.411206   -1.939813
      7          1           0       -0.444338    2.178985   -1.547701
      8          6           0        0.650434    3.354667   -4.445590
      9          8           0        1.120552    2.964933   -5.406644
     10          6           0       -1.142015    0.949723   -6.552357
     11          1           0       -0.314901    5.794149    1.397230
     12          1           0        0.077860    6.082187   -1.022107
     13          1           0        0.243148    4.358095   -0.701395
     14          1           0       -2.344079    5.696491   -1.740792
     15          1           0       -1.120265    4.937331   -2.783574
     16          1           0       -2.599635    3.443216   -0.506156
     17          1           0       -3.220415    3.521452   -2.160451
     18          1           0       -1.845503    0.790994   -7.326534
     19          1           0       -0.205992    1.398565   -6.766135
     20          1           0       -1.367049    0.642581   -5.558896
     21          8           0       -1.298107    0.672652   -3.326446
     22          8           0       -1.970181    1.617226   -2.940062
 ---------------------------------------------------------------------

 Alpha  occ. eigenvalues --   -1.24998  -1.24922  -1.18101  -1.10518  -1.05656
 Alpha  occ. eigenvalues --   -0.96594  -0.87160  -0.86611  -0.79855  -0.74034
 Alpha  occ. eigenvalues --   -0.73364  -0.70123  -0.65104  -0.64144  -0.61874
 Alpha  occ. eigenvalues --   -0.59069  -0.58146  -0.57976  -0.55556  -0.54350
 Alpha  occ. eigenvalues --   -0.53040  -0.52001  -0.51711  -0.51265  -0.47095
 Alpha  occ. eigenvalues --   -0.46873  -0.45651  -0.44340  -0.39808  -0.38812
 Alpha  occ. eigenvalues --   -0.37908  -0.36150
 Alpha virt. eigenvalues --    0.00455   0.01053   0.01832   0.04147   0.04228
 Alpha virt. eigenvalues --    0.10570   0.12111   0.12730   0.14028   0.15280
 Alpha virt. eigenvalues --    0.15353   0.16764   0.17580   0.18721   0.18899

  Beta  occ. eigenvalues --   -1.24927  -1.19631  -1.18105  -1.07519  -1.02649
  Beta  occ. eigenvalues --   -0.95571  -0.86713  -0.85093  -0.79777  -0.74035
  Beta  occ. eigenvalues --   -0.73294  -0.68006  -0.64549  -0.60930  -0.59175
  Beta  occ. eigenvalues --   -0.58284  -0.58053  -0.57909  -0.55222  -0.54047
  Beta  occ. eigenvalues --   -0.52912  -0.51402  -0.50752  -0.50259  -0.47208
  Beta  occ. eigenvalues --   -0.46861  -0.45799  -0.44343  -0.38081  -0.35803
  Beta  occ. eigenvalues --   -0.34830
  Beta virt. eigenvalues --   -0.00660   0.00459   0.03713   0.04042   0.04147
  Beta virt. eigenvalues --    0.04240   0.10569   0.12125   0.12707   0.14138
  Beta virt. eigenvalues --    0.14912   0.15280   0.16751   0.17561   0.18571

 Mulliken charges and spin densities:
               1          2
     1  O   -0.461782  -0.000167
     2  C    0.410959  -0.000070
     3  C   -0.447303   0.001489
     4  C   -0.187688  -0.030138
     5  C   -0.293484   0.041912
     6  C   -0.148544  -0.916668
     7  H    0.164838   0.025459
     8  C    0.313501  -0.000129
     9  O   -0.313045  -0.000074
    10  C   -0.455378   1.106036
    11  H    0.089760   0.000005
    12  H    0.170155  -0.000411
    13  H    0.179159  -0.000172
    14  H    0.141750   0.000425
    15  H    0.140190   0.001379
    16  H    0.192218  -0.022657
    17  H    0.157202  -0.003027
    18  H    0.143721  -0.034947
    19  H    0.148165  -0.034985
    20  H    0.162093  -0.035279
    21  O   -0.318707   0.547392
    22  O    0.212219   0.354626
 Sum of Mulliken charges =   0.00000   1.00000

 Dipole moment (field-independent basis, Debye):
    X=              2.0386    Y=              3.3791    Z=              0.7947  Tot=              4.0256
 N-N= 3.596133160849D+02 E-N=-6.398668643425D+02  KE=-3.662983109194D+01
  Exact polarizability:  58.187  -3.390  69.539 -11.473  28.786  74.898
 Approx polarizability:  43.309  -2.265  42.623  -8.900  16.462  47.157
 Leave Link  601 at Wed Feb 17 08:27:42 2021, MaxMem=    33554432 cpu:         0.0
 (Enter /cm/shared/apps/Gaussian09/g09/l716.exe)
 Dipole        = 8.02033474D-01 1.32943252D+00 3.12670732D-01
 Polarizability= 5.81866175D+01-3.39046458D+00 6.95385066D+01
                -1.14729223D+01 2.87862278D+01 7.48975736D+01
 HyperPolar    = 7.26090742D+01 2.10285123D+01 4.50816678D+01
                -3.56779430D+02 1.97463964D+00 1.46971681D+01

 ******    1 imaginary frequencies (negative Signs) ******

                      1                      2                      3
                      A                      A                      A
 Frequencies --    -24.3616                 9.0421                13.2811
 Red. masses --      3.8779                 4.0161                 5.9283
 Frc consts  --      0.0014                 0.0002                 0.0006
 IR Inten    --      0.4972                 0.0278                 0.9271

                      4                      5                      6
                      A                      A                      A
 Frequencies --     20.2372                32.5198                36.5481
 Red. masses --      5.7901                 6.5161                 7.2722
 Frc consts  --      0.0014                 0.0041                 0.0057
 IR Inten    --      1.3930                 8.7379                 0.7534

                      7                      8                      9
                      A                      A                      A
 Frequencies --     39.7582                48.2372                57.3418
 Red. masses --      4.7737                 2.5618                 5.8821
 Frc consts  --      0.0044                 0.0035                 0.0114
 IR Inten    --      0.7608                 6.2655                 0.5102

                     10                     11                     12
                      A                      A                      A
 Frequencies --     73.5085                81.5564               108.3012
 Red. masses --      4.1838                 1.8270                 2.3209
 Frc consts  --      0.0133                 0.0072                 0.0160
 IR Inten    --      0.2314                 0.3498                 0.1218

                     13                     14                     15
                      A                      A                      A
 Frequencies --    115.1959               121.8521               155.7578
 Red. masses --      1.2200                 2.0666                 1.0328
 Frc consts  --      0.0095                 0.0181                 0.0148
 IR Inten    --      1.0814                 3.3047                 0.1164

                     16                     17                     18
                      A                      A                      A
 Frequencies --    156.2354               217.1067               270.3059
 Red. masses --      7.6289                 3.3579                 4.1028
 Frc consts  --      0.1097                 0.0933                 0.1766
 IR Inten    --      2.0592                 3.4494                 3.5564

                     19                     20                     21
                      A                      A                      A
 Frequencies --    313.2078               438.2258               557.0701
 Red. masses --      2.6233                 2.3338                 4.3602
 Frc consts  --      0.1516                 0.2641                 0.7972
 IR Inten    --      7.3334                 6.5294                 6.9347

                     22                     23                     24
                      A                      A                      A
 Frequencies --    614.5946               722.3982               761.6552
 Red. masses --      2.8376                 1.4049                 1.5335
 Frc consts  --      0.6315                 0.4320                 0.5241
 IR Inten    --     17.9538                50.1676                61.0266

                     25                     26                     27
                      A                      A                      A
 Frequencies --    832.2741               929.8098               940.4135
 Red. masses --      1.6107                 1.8966                 1.2298
 Frc consts  --      0.6574                 0.9661                 0.6408
 IR Inten    --     56.5736                13.6959               142.0032

                     28                     29                     30
                      A                      A                      A
 Frequencies --    947.1091              1004.4339              1034.6912
 Red. masses --      2.5017                 1.8523                 2.2803
 Frc consts  --      1.3222                 1.1010                 1.4384
 IR Inten    --     20.1200                 9.3969                75.3851

                     31                     32                     33
                      A                      A                      A
 Frequencies --   1072.5096              1101.1461              1119.8491
 Red. masses --      2.6903                 1.8175                 1.2562
 Frc consts  --      1.8233                 1.2984                 0.9282
 IR Inten    --     79.1240                24.9728                 9.4616

                     34                     35                     36
                      A                      A                      A
 Frequencies --   1149.2440              1175.5245              1190.6195
 Red. masses --      2.0351                 1.6855                 1.4563
 Frc consts  --      1.5837                 1.3723                 1.2163
 IR Inten    --     19.6810                 6.8242                 3.5999

                     37                     38                     39
                      A                      A                      A
 Frequencies --   1206.3512              1234.3889              1252.3914
 Red. masses --      1.4424                 1.1332                 1.0894
 Frc consts  --      1.2367                 1.0173                 1.0067
 IR Inten    --     21.4815                78.3410                31.0594

                     40                     41                     42
                      A                      A                      A
 Frequencies --   1256.5417              1258.3561              1259.6180
 Red. masses --      1.1126                 1.2784                 1.1225
 Frc consts  --      1.0350                 1.1926                 1.0494
 IR Inten    --     50.2198                22.7961                60.0098

                     43                     44                     45
                      A                      A                      A
 Frequencies --   1266.3040              1278.7726              1305.1770
 Red. masses --      1.3842                 1.1210                 1.6490
 Frc consts  --      1.3077                 1.0800                 1.6550
 IR Inten    --     85.5090                26.4394                 2.2212

                     46                     47                     48
                      A                      A                      A
 Frequencies --   1323.0312              1359.4570              1793.5080
 Red. masses --      1.5553                 3.1797                11.0243
 Frc consts  --      1.6040                 3.4624                20.8933
 IR Inten    --     42.3192                21.4651               233.3862

                     49                     50                     51
                      A                      A                      A
 Frequencies --   2059.6260              2637.9398              2641.5095
 Red. masses --     13.4187                 1.0786                 1.0692
 Frc consts  --     33.5380                 4.4221                 4.3957
 IR Inten    --    260.8516                90.1056                 1.2535

                     52                     53                     54
                      A                      A                      A
 Frequencies --   2659.9520              2669.2157              2722.3232
 Red. masses --      1.0808                 1.0861                 1.0498
 Frc consts  --      4.5054                 4.5592                 4.5839
 IR Inten    --     47.7009                84.2441                68.1906

                     55                     56                     57
                      A                      A                      A
 Frequencies --   2731.1131              2734.8445              2739.7023
 Red. masses --      1.1030                 1.0484                 1.0524
 Frc consts  --      4.8473                 4.6199                 4.6542
 IR Inten    --     81.9490                63.8683                63.6418

                     58                     59                     60
                      A                      A                      A
 Frequencies --   2752.4791              2760.2802              2790.3890
 Red. masses --      1.1072                 1.0754                 1.0123
 Frc consts  --      4.9423                 4.8276                 4.6439
 IR Inten    --     69.9253                76.8940                 0.8231

 - Thermochemistry -
 -------------------
 Temperature   298.150 Kelvin.  Pressure   1.00000 Atm.
 Atom     1 has atomic number  8 and mass  15.99491

 Molecular mass:   159.06573 amu.
 Principal axes and moments of inertia in atomic units:
                           1         2         3
     Eigenvalues --  1124.248634361.253685113.69800
           X           -0.16419   0.69983   0.69518
           Y            0.52577   0.65838  -0.53861
           Z            0.83463  -0.27707   0.47606
 This molecule is an asymmetric top.
 Rotational symmetry number  1.
 Warning -- assumption of classical behavior for rotation
           may cause significant error
 Rotational temperatures (Kelvin)      0.07704     0.01986     0.01694
 Rotational constants (GHZ):           1.60529     0.41381     0.35292
    1 imaginary frequencies ignored.
 Zero-point vibrational energy     389712.4 (Joules/Mol)
                                   93.14351 (Kcal/Mol)
 Warning -- explicit consideration of  21 degrees of freedom as
           vibrations may cause significant error
 Vibrational temperatures:     13.01    19.11    29.12    46.79    52.58
          (Kelvin)             57.20    69.40    82.50   105.76   117.34
                              155.82   165.74   175.32   224.10   224.79
                              312.37   388.91   450.64   630.51   801.50
                              884.26  1039.37  1095.85  1197.46  1337.79
                             1353.04  1362.68  1445.15  1488.69  1543.10
                             1584.30  1611.21  1653.50  1691.32  1713.03
                             1735.67  1776.01  1801.91  1807.88  1810.49
                             1812.31  1821.93  1839.87  1877.86  1903.54
                             1955.95  2580.45  2963.34  3795.40  3800.54
                             3827.07  3840.40  3916.81  3929.46  3934.83
                             3941.82  3960.20  3971.42  4014.74

 Zero-point correction=                           0.148434 (Hartree/Particle)
 Thermal correction to Energy=                    0.165948
 Thermal correction to Enthalpy=                  0.166892
 Thermal correction to Gibbs Free Energy=         0.093992
 Sum of electronic and zero-point Energies=              0.140654
 Sum of electronic and thermal Energies=                 0.158169
 Sum of electronic and thermal Enthalpies=               0.159113
 Sum of electronic and thermal Free Energies=            0.086212

                     E (Thermal)             CV                S
                      KCal/Mol        Cal/Mol-Kelvin    Cal/Mol-Kelvin
 Total                  104.134             51.573            153.432
 Electronic               0.000              0.000              1.377
 Translational            0.889              2.981             41.102
 Rotational               0.889              2.981             31.595
 Vibrational            102.357             45.612             79.359
 Vibration     1          0.593              1.987              8.211
 Vibration     2          0.593              1.987              7.447
 Vibration     3          0.593              1.986              6.611
 Vibration     4          0.594              1.983              5.669
 Vibration     5          0.594              1.982              5.438
 Vibration     6          0.594              1.981              5.271
 Vibration     7          0.595              1.978              4.888
 Vibration     8          0.596              1.975              4.547
 Vibration     9          0.599              1.966              4.057
 Vibration    10          0.600              1.962              3.853
 Vibration    11          0.606              1.943              3.299
 Vibration    12          0.608              1.937              3.179
 Vibration    13          0.609              1.931              3.071
 Vibration    14          0.620              1.896              2.601
 Vibration    15          0.620              1.896              2.595
 Vibration    16          0.646              1.815              1.983
 Vibration    17          0.674              1.728              1.594
 Vibration    18          0.701              1.648              1.345
 Vibration    19          0.798              1.387              0.832
 Vibration    20          0.913              1.124              0.530
 Vibration    21          0.974              1.001              0.425

 Normal termination of Gaussian 09 at Wed Feb 17 08:27:42 2021.
