 Gaussian 09, Revision D.01,
 Gaussian 09:  ES64L-G09RevD.01 24-Apr-2013

 ----------------------------------------------------------------------
 #P pm6 scf=qc opt(calcall, ts, noeigentest, cartesian,maxcycle=100) No
 Symm
 ----------------------------------------------------------------------

 ------------------------------
 Gaussian input prepared by ASE
 ------------------------------
 Symbolic Z-matrix:
 Charge =  0 Multiplicity = 2

 SCF Done:  E(UPM6) =  0.681952830325E-02 a.u. after    9 cycles
 SCF Done:  E(UPM6) =  0.337352001486E-02 a.u. after    5 cycles
 SCF Done:  E(UPM6) =  0.275400502460E-02 a.u. after    4 cycles
 SCF Done:  E(UPM6) =  0.254267541175E-02 a.u. after    5 cycles
 SCF Done:  E(UPM6) =  0.246149455575E-02 a.u. after    5 cycles
 SCF Done:  E(UPM6) =  0.244353957964E-02 a.u. after    5 cycles
 SCF Done:  E(UPM6) =  0.245636145104E-02 a.u. after    4 cycles
 SCF Done:  E(UPM6) =  0.248534394484E-02 a.u. after    4 cycles
 SCF Done:  E(UPM6) =  0.252264858841E-02 a.u. after    5 cycles
 SCF Done:  E(UPM6) =  0.256370510749E-02 a.u. after    5 cycles
 SCF Done:  E(UPM6) = -0.737100140083E-02 a.u. after    4 cycles
 SCF Done:  E(UPM6) = -0.737474500386E-02 a.u. after    4 cycles
 SCF Done:  E(UPM6) = -0.737824743919E-02 a.u. after    4 cycles
 SCF Done:  E(UPM6) = -0.738039970111E-02 a.u. after    4 cycles
 SCF Done:  E(UPM6) = -0.738179117309E-02 a.u. after    4 cycles
 SCF Done:  E(UPM6) = -0.738254797312E-02 a.u. after    4 cycles
 SCF Done:  E(UPM6) = -0.738290724723E-02 a.u. after    4 cycles
 SCF Done:  E(UPM6) = -0.738302106402E-02 a.u. after    4 cycles
 SCF Done:  E(UPM6) = -0.738304176213E-02 a.u. after    3 cycles
 SCF Done:  E(UPM6) = -0.738304304656E-02 a.u. after    3 cycles
 Optimization completed.
    -- Stationary point found.

                          Input orientation:
 ---------------------------------------------------------------------
 Center     Atomic      Atomic             Coordinates (Angstroms)
 Number     Number       Type             X           Y           Z
 ---------------------------------------------------------------------
      1          8           0       -2.184098    5.324316    0.847017
      2          6           0       -0.994479    5.332445    0.626072
      3          6           0       -0.372214    4.924926   -0.690252
      4          6           0       -1.378044    4.763843   -1.833609
      5          6           0       -2.349365    3.588535   -1.630084
      6          6           0       -1.687805    2.284378   -1.783501
      7          1           0       -0.906054    1.877116   -1.185080
      8          6           0       -0.080334    4.184307   -5.269301
      9          8           0        0.236172    4.115438   -6.360768
     10          6           0       -0.662206    0.885604   -6.168331
     11          1           0       -0.270785    5.639613    1.400658
     12          1           0        0.398234    5.669861   -0.980123
     13          1           0        0.188626    3.977334   -0.539201
     14          1           0       -1.971696    5.696343   -1.933270
     15          1           0       -0.832092    4.637264   -2.791727
     16          1           0       -2.813391    3.663729   -0.613403
     17          1           0       -3.199740    3.687096   -2.341031
     18          1           0       -1.293484    1.247224   -6.937056
     19          1           0        0.369668    0.740659   -6.354419
     20          1           0       -1.069722    0.637487   -5.216977
     21          8           0       -1.687571    0.472479   -3.079240
     22          8           0       -2.190342    1.565288   -2.869497
 ---------------------------------------------------------------------

 Alpha  occ. eigenvalues --   -1.25143  -1.19551  -1.18045  -1.07424  -1.02541
 Alpha  occ. eigenvalues --   -0.95488  -0.87007  -0.86680  -0.79670  -0.74229
 Alpha  occ. eigenvalues --   -0.73143  -0.67885  -0.64438  -0.60941  -0.59134
 Alpha  occ. eigenvalues --   -0.58177  -0.58140  -0.57998  -0.55222  -0.53965
 Alpha  occ. eigenvalues --   -0.53059  -0.52600  -0.51765  -0.51215  -0.47165
 Alpha  occ. eigenvalues --   -0.46780  -0.45677  -0.44372  -0.38018  -0.36608
 Alpha  occ. eigenvalues --   -0.35667  -0.34823
 Alpha virt. eigenvalues --   -0.00506   0.00515   0.03963   0.04020   0.04193
 Alpha virt. eigenvalues --    0.10631   0.12260   0.12787   0.14219   0.15027
 Alpha virt. eigenvalues --    0.15335   0.16833   0.17606   0.18546   0.18707

  Beta  occ. eigenvalues --   -1.25136  -1.24895  -1.18041  -1.10502  -1.05524
  Beta  occ. eigenvalues --   -0.96516  -0.87102  -0.85521  -0.79756  -0.74232
  Beta  occ. eigenvalues --   -0.73237  -0.70002  -0.64991  -0.64068  -0.61750
  Beta  occ. eigenvalues --   -0.59070  -0.58173  -0.58122  -0.55558  -0.54189
  Beta  occ. eigenvalues --   -0.53023  -0.51335  -0.51256  -0.50761  -0.47058
  Beta  occ. eigenvalues --   -0.46792  -0.45522  -0.44360  -0.39677  -0.38703
  Beta  occ. eigenvalues --   -0.37840
  Beta virt. eigenvalues --    0.00510   0.01124   0.01945   0.03185   0.03963
  Beta virt. eigenvalues --    0.04078   0.10632   0.12273   0.12830   0.14122
  Beta virt. eigenvalues --    0.15332   0.15440   0.16847   0.17625   0.18592

 Mulliken charges and spin densities:
               1          2
     1  O   -0.461917   0.000150
     2  C    0.411015   0.000083
     3  C   -0.447042  -0.001582
     4  C   -0.192883   0.032796
     5  C   -0.291996  -0.042824
     6  C   -0.152947   0.920331
     7  H    0.164345  -0.025558
     8  C    0.312268  -0.000339
     9  O   -0.311373   0.000571
    10  C   -0.455358   1.103302
    11  H    0.089423  -0.000006
    12  H    0.170186   0.000440
    13  H    0.178184   0.000166
    14  H    0.142196  -0.000528
    15  H    0.145568  -0.001431
    16  H    0.190817   0.020706
    17  H    0.156462   0.002930
    18  H    0.144506  -0.034942
    19  H    0.144865  -0.034935
    20  H    0.164512  -0.034163
    21  O   -0.312423  -0.553333
    22  O    0.211592  -0.351834
 Sum of Mulliken charges =   0.00000   1.00000

 Dipole moment (field-independent basis, Debye):
    X=              2.4685    Y=              2.7869    Z=              0.7485  Tot=              3.7974
 N-N= 3.554051906896D+02 E-N=-6.315251901822D+02  KE=-3.654710938942D+01
  Exact polarizability:  56.273  -4.579  72.333  -7.110  24.125  74.816
 Approx polarizability:  41.830  -4.302  43.662  -5.400  13.271  47.421
 Leave Link  601 at Wed Feb 17 09:07:50 2021, MaxMem=    33554432 cpu:         0.0
 (Enter /cm/shared/apps/Gaussian09/g09/l716.exe)
 Dipole        = 9.71170456D-01 1.09645290D+00 2.94469895D-01
 Polarizability= 5.62733135D+01-4.57901354D+00 7.23330237D+01
                -7.11025385D+00 2.41250139D+01 7.48160668D+01
 HyperPolar    = 7.47161411D+01 1.29880262D+01 1.98523683D+01
                -3.90987845D+02-4.54610250D+00 9.92568807D+00

 ******    1 imaginary frequencies (negative Signs) ******

                      1                      2                      3
                      A                      A                      A
 Frequencies --    -16.2445                 7.6453                11.5656
 Red. masses --      3.5492                 5.4655                 4.6645
 Frc consts  --      0.0006                 0.0002                 0.0004
 IR Inten    --      0.4954                 1.3151                 1.1846

                      4                      5                      6
                      A                      A                      A
 Frequencies --     25.6255                30.8290                34.3914
 Red. masses --      3.4558                 2.2872                 3.5733
 Frc consts  --      0.0013                 0.0013                 0.0025
 IR Inten    --      4.4570                 1.4716                 2.7266

                      7                      8                      9
                      A                      A                      A
 Frequencies --     37.1125                45.5677                49.7892
 Red. masses --      5.2297                 6.8931                 2.3199
 Frc consts  --      0.0042                 0.0084                 0.0034
 IR Inten    --      0.2785                 0.4878                 4.7684

                     10                     11                     12
                      A                      A                      A
 Frequencies --     52.8357                59.2686                79.9535
 Red. masses --      2.8038                 7.9751                 1.1358
 Frc consts  --      0.0046                 0.0165                 0.0043
 IR Inten    --      2.8308                 0.6682                 0.1754

                     13                     14                     15
                      A                      A                      A
 Frequencies --     97.3932               123.4665               145.1521
 Red. masses --      3.0218                 2.8641                 1.0932
 Frc consts  --      0.0169                 0.0257                 0.0136
 IR Inten    --      0.5299                 4.0355                 0.0689

                     16                     17                     18
                      A                      A                      A
 Frequencies --    156.7895               217.6307               274.3679
 Red. masses --      7.0464                 3.2860                 4.1543
 Frc consts  --      0.1021                 0.0917                 0.1843
 IR Inten    --      2.1129                 3.4419                 3.8394

                     19                     20                     21
                      A                      A                      A
 Frequencies --    313.5693               436.3006               557.6531
 Red. masses --      2.5523                 2.3239                 4.3277
 Frc consts  --      0.1479                 0.2606                 0.7929
 IR Inten    --      6.6657                 6.6400                 6.7366

                     22                     23                     24
                      A                      A                      A
 Frequencies --    616.8877               726.9088               758.8886
 Red. masses --      2.8684                 1.4165                 1.5276
 Frc consts  --      0.6431                 0.4410                 0.5184
 IR Inten    --     18.2036                42.1278                64.9084

                     25                     26                     27
                      A                      A                      A
 Frequencies --    829.7109               929.7636               940.1699
 Red. masses --      1.6066                 1.9200                 1.2333
 Frc consts  --      0.6517                 0.9779                 0.6423
 IR Inten    --     54.0591                10.7789               143.8868

                     28                     29                     30
                      A                      A                      A
 Frequencies --    946.6015              1006.7957              1033.4074
 Red. masses --      2.4599                 1.8207                 2.2240
 Frc consts  --      1.2987                 1.0874                 1.3994
 IR Inten    --     21.4132                 8.4098                68.2853

                     31                     32                     33
                      A                      A                      A
 Frequencies --   1071.9092              1102.0415              1121.2279
 Red. masses --      2.7925                 1.8749                 1.2452
 Frc consts  --      1.8904                 1.3416                 0.9223
 IR Inten    --     78.5825                28.9134                11.0539

                     34                     35                     36
                      A                      A                      A
 Frequencies --   1150.7300              1176.1153              1187.9877
 Red. masses --      1.9963                 1.7355                 1.3922
 Frc consts  --      1.5575                 1.4144                 1.1576
 IR Inten    --     21.4744                 6.8067                 2.9529

                     37                     38                     39
                      A                      A                      A
 Frequencies --   1206.7925              1234.9158              1253.5476
 Red. masses --      1.4808                 1.1339                 1.1044
 Frc consts  --      1.2706                 1.0188                 1.0225
 IR Inten    --     19.7138                76.5774                31.1866

                     40                     41                     42
                      A                      A                      A
 Frequencies --   1254.5552              1256.4154              1258.7038
 Red. masses --      1.1134                 1.1183                 1.2606
 Frc consts  --      1.0325                 1.0401                 1.1767
 IR Inten    --     42.5864                43.5687                25.8682

                     43                     44                     45
                      A                      A                      A
 Frequencies --   1266.5004              1277.3207              1304.8779
 Red. masses --      1.3767                 1.1238                 1.6646
 Frc consts  --      1.3011                 1.0803                 1.6699
 IR Inten    --     83.1516                33.5088                 1.7370

                     46                     47                     48
                      A                      A                      A
 Frequencies --   1322.5426              1358.6476              1793.5214
 Red. masses --      1.5578                 3.1166                11.0340
 Frc consts  --      1.6054                 3.3895                20.9120
 IR Inten    --     45.5628                20.2465               233.1614

                     49                     50                     51
                      A                      A                      A
 Frequencies --   2061.1422              2639.6861              2641.4264
 Red. masses --     13.4187                 1.0785                 1.0692
 Frc consts  --     33.5873                 4.4279                 4.3954
 IR Inten    --    279.0710                76.8063                 1.2920

                     52                     53                     54
                      A                      A                      A
 Frequencies --   2659.5681              2667.4534              2722.4698
 Red. masses --      1.0811                 1.0861                 1.0498
 Frc consts  --      4.5054                 4.5531                 4.5844
 IR Inten    --     52.5471                95.2438                72.2391

                     55                     56                     57
                      A                      A                      A
 Frequencies --   2732.0478              2734.1648              2739.7514
 Red. masses --      1.0962                 1.0531                 1.0523
 Frc consts  --      4.8207                 4.6386                 4.6539
 IR Inten    --     65.9651               104.2726                63.5531

                     58                     59                     60
                      A                      A                      A
 Frequencies --   2755.5167              2760.1294              2792.8592
 Red. masses --      1.1085                 1.0755                 1.0122
 Frc consts  --      4.9589                 4.8276                 4.6515
 IR Inten    --     58.9494                78.6141                 0.5136

 - Thermochemistry -
 -------------------
 Temperature   298.150 Kelvin.  Pressure   1.00000 Atm.
 Atom     1 has atomic number  8 and mass  15.99491

 Molecular mass:   159.06573 amu.
 Principal axes and moments of inertia in atomic units:
                           1         2         3
     Eigenvalues --  1509.946564165.449255356.62771
           X           -0.14059   0.43683   0.88849
           Y            0.44976   0.82764  -0.33575
           Z            0.88202  -0.35240   0.31282
 This molecule is an asymmetric top.
 Rotational symmetry number  1.
 Warning -- assumption of classical behavior for rotation
           may cause significant error
 Rotational temperatures (Kelvin)      0.05736     0.02079     0.01617
 Rotational constants (GHZ):           1.19524     0.43326     0.33692
    1 imaginary frequencies ignored.
 Zero-point vibrational energy     389089.0 (Joules/Mol)
                                   92.99451 (Kcal/Mol)
 Warning -- explicit consideration of  21 degrees of freedom as
           vibrations may cause significant error
 Vibrational temperatures:     11.00    16.64    36.87    44.36    49.48
          (Kelvin)             53.40    65.56    71.64    76.02    85.27
                              115.04   140.13   177.64   208.84   225.58
                              313.12   394.75   451.16   627.74   802.34
                              887.56  1045.86  1091.87  1193.77  1337.72
                             1352.69  1361.95  1448.55  1486.84  1542.24
                             1585.59  1613.19  1655.64  1692.17  1709.25
                             1736.30  1776.77  1803.57  1805.02  1807.70
                             1810.99  1822.21  1837.78  1877.43  1902.84
                             1954.79  2580.47  2965.52  3797.91  3800.42
                             3826.52  3837.87  3917.02  3930.80  3933.85
                             3941.89  3964.57  3971.21  4018.30

 Zero-point correction=                           0.148196 (Hartree/Particle)
 Thermal correction to Energy=                    0.165925
 Thermal correction to Enthalpy=                  0.166869
 Thermal correction to Gibbs Free Energy=         0.092326
 Sum of electronic and zero-point Energies=              0.140813
 Sum of electronic and thermal Energies=                 0.158542
 Sum of electronic and thermal Enthalpies=               0.159486
 Sum of electronic and thermal Free Energies=            0.084943

                     E (Thermal)             CV                S
                      KCal/Mol        Cal/Mol-Kelvin    Cal/Mol-Kelvin
 Total                  104.120             51.636            156.890
 Electronic               0.000              0.000              1.377
 Translational            0.889              2.981             41.102
 Rotational               0.889              2.981             31.888
 Vibrational            102.342             45.674             82.523
 Vibration     1          0.593              1.987              8.545
 Vibration     2          0.593              1.987              7.722
 Vibration     3          0.593              1.985              6.142
 Vibration     4          0.594              1.984              5.775
 Vibration     5          0.594              1.983              5.559
 Vibration     6          0.594              1.982              5.408
 Vibration     7          0.595              1.979              5.001
 Vibration     8          0.595              1.978              4.826
 Vibration     9          0.596              1.976              4.708
 Vibration    10          0.597              1.974              4.481
 Vibration    11          0.600              1.963              3.892
 Vibration    12          0.603              1.951              3.506
 Vibration    13          0.610              1.929              3.045
 Vibration    14          0.617              1.908              2.735
 Vibration    15          0.620              1.895              2.588
 Vibration    16          0.646              1.814              1.979
 Vibration    17          0.677              1.721              1.569
 Vibration    18          0.701              1.648              1.343
 Vibration    19          0.797              1.391              0.838
 Vibration    20          0.913              1.123              0.529
 Vibration    21          0.977              0.996              0.422

 Normal termination of Gaussian 09 at Wed Feb 17 09:07:50 2021.
