 Gaussian 09, Revision D.01,
 Gaussian 09:  ES64L-G09RevD.01 24-Apr-2013

 ----------------------------------------------------------------------
 #P upm6 scf=qc opt(calcall, ts, noeigentest, cartesian,maxcycle=100) N
 oSymm, guess=mix
 ----------------------------------------------------------------------

 ------------------------------
 Gaussian input prepared by ASE
 ------------------------------
 Symbolic Z-matrix:
 Charge =  0 Multiplicity = 1

 SCF Done:  E(UPM6) = -0.104704673598     a.u. after   16 cycles

 Alpha  occ. eigenvalues --   -1.19277  -1.17324  -1.12210  -1.05388  -1.00693
 Alpha  occ. eigenvalues --   -0.95934  -0.83938  -0.79955  -0.75647  -0.71495
 Alpha  occ. eigenvalues --   -0.66521  -0.62266  -0.61171  -0.61003  -0.60129
 Alpha  occ. eigenvalues --   -0.56896  -0.54639  -0.53015  -0.52233  -0.51414
 Alpha  occ. eigenvalues --   -0.50602  -0.49914  -0.48913  -0.46192  -0.45190
 Alpha  occ. eigenvalues --   -0.43701  -0.41759  -0.37529  -0.33014
 Alpha virt. eigenvalues --    0.01175   0.01997   0.02107   0.06290   0.11192
 Alpha virt. eigenvalues --    0.11320   0.13588   0.14816   0.15158   0.16134
 Alpha virt. eigenvalues --    0.17406   0.17492   0.17590   0.17722   0.18229

  Beta  occ. eigenvalues --   -1.19277  -1.17324  -1.12210  -1.05399  -1.00690
  Beta  occ. eigenvalues --   -0.95917  -0.83991  -0.79953  -0.75656  -0.71476
  Beta  occ. eigenvalues --   -0.66517  -0.62262  -0.61166  -0.61001  -0.60171
  Beta  occ. eigenvalues --   -0.56570  -0.54767  -0.53024  -0.52309  -0.51411
  Beta  occ. eigenvalues --   -0.50656  -0.49809  -0.48935  -0.46100  -0.45175
  Beta  occ. eigenvalues --   -0.43757  -0.41759  -0.37509  -0.33086
  Beta virt. eigenvalues --    0.01166   0.01987   0.02159   0.06295   0.11142
  Beta virt. eigenvalues --    0.11324   0.13602   0.14816   0.14978   0.16115
  Beta virt. eigenvalues --    0.17422   0.17494   0.17594   0.17704   0.18225

 Mulliken charges and spin densities:
               1          2
     1  C   -0.200237  -0.021938
     2  C   -0.250708   0.006027
     3  C   -0.274813  -0.006913
     4  C    0.681647  -0.000016
     5  C    0.406250  -0.000567
     6  C   -0.444897   0.001683
     7  H    0.143120  -0.000287
     8  H    0.152460   0.001226
     9  H    0.171904   0.040760
    10  H    0.161384  -0.021602
    11  H    0.162610   0.001333
    12  H    0.343033   0.000028
    13  C   -0.591660   0.000997
    14  H    0.088220   0.000006
    15  H    0.174946  -0.000308
    16  H    0.173270  -0.000110
    17  H    0.214628  -0.000387
    18  H    0.205044  -0.000038
    19  H    0.204335  -0.000035
    20  O   -0.462569   0.000099
    21  O   -0.548177  -0.000022
    22  O   -0.509790   0.000062
 Sum of Mulliken charges =   0.00000   0.00000

 Dipole moment (field-independent basis, Debye):
    X=             -1.0244    Y=             -3.8589    Z=              1.9687  Tot=              4.4515
 N-N= 3.188872677807D+02 E-N=-5.650551547892D+02  KE=-3.417042249695D+01
  Exact polarizability:  41.991   5.486  72.797  -8.111  -3.747  62.903
 Approx polarizability:  27.819   6.903  52.424  -4.061  -5.289  42.955
 Leave Link  601 at Tue Feb 16 10:25:33 2021, MaxMem=    33554432 cpu:         0.0
 (Enter /cm/shared/apps/Gaussian09/g09/l701.exe)
 Compute integral second derivatives.
 ... and contract with generalized density number  0.
 Leave Link  701 at Tue Feb 16 10:25:33 2021, MaxMem=    33554432 cpu:         0.1
 (Enter /cm/shared/apps/Gaussian09/g09/l702.exe)
 L702 exits ... SP integral derivatives will be done elsewhere.

 Optimization completed.
    -- Stationary point found.

                          Input orientation:
 ---------------------------------------------------------------------
 Center     Atomic      Atomic             Coordinates (Angstroms)
 Number     Number       Type             X           Y           Z
 ---------------------------------------------------------------------
      1          6           0       -0.147705    0.206061    1.190248
      2          6           0        0.552019   -1.125153    0.848763
      3          6           0       -0.261431   -2.050630    0.162727
      4          6           0        1.247922    0.868505   -2.722788
      5          6           0       -1.931023    1.346688    2.567102
      6          6           0       -1.308995    0.028762    2.170170
      7          1           0        0.593464    0.913985    1.613529
      8          1           0       -0.506066    0.687417    0.255665
      9          1           0        1.458610   -0.891625    0.226807
     10          1           0        0.962955   -1.595293    1.776664
     11          1           0       -1.103275   -2.478756   -0.223565
     12          1           0        1.335726    2.105967   -1.165068
     13          6           0        0.999458   -0.573977   -2.963073
     14          1           0       -2.826340    1.264079    3.206327
     15          1           0       -2.081902   -0.633513    1.727128
     16          1           0       -0.965589   -0.502241    3.082598
     17          1           0        0.602877   -1.090519   -2.070129
     18          1           0        1.928505   -1.090770   -3.254380
     19          1           0        0.279976   -0.718471   -3.785172
     20          8           0       -1.497101    2.424035    2.226968
     21          8           0        1.185432    1.143539   -1.370435
     22          8           0        1.482483    1.761910   -3.500088
 ---------------------------------------------------------------------

 ******    1 imaginary frequencies (negative Signs) ******

                      1                      2                      3
                      A                      A                      A
 Frequencies --    -30.2498                15.7872                17.6839
 Red. masses --      4.5546                 4.7612                 4.0995
 Frc consts  --      0.0025                 0.0007                 0.0008
 IR Inten    --      2.0944                 0.0675                 1.6464

                      4                      5                      6
                      A                      A                      A
 Frequencies --     25.0397                45.7019                51.8137
 Red. masses --      3.8775                 2.1457                 2.2291
 Frc consts  --      0.0014                 0.0026                 0.0035
 IR Inten    --      8.5423                 1.3564                 3.3420

                      7                      8                      9
                      A                      A                      A
 Frequencies --     66.0045                75.7131                97.2304
 Red. masses --      3.0018                 2.5616                 1.7915
 Frc consts  --      0.0077                 0.0087                 0.0100
 IR Inten    --      1.1980                 1.9653                 3.4275

                     10                     11                     12
                      A                      A                      A
 Frequencies --    113.1580               188.0636               251.2881
 Red. masses --      2.2322                 4.2428                 1.2174
 Frc consts  --      0.0168                 0.0884                 0.0453
 IR Inten    --      4.0513                12.9246                43.5712

                     13                     14                     15
                      A                      A                      A
 Frequencies --    281.9626               331.3557               379.3091
 Red. masses --      2.5814                 1.1676                 3.0179
 Frc consts  --      0.1209                 0.0755                 0.2558
 IR Inten    --     35.5555               106.3928                 1.2214

                     16                     17                     18
                      A                      A                      A
 Frequencies --    450.7550               507.6321               515.4615
 Red. masses --      3.2968                 1.6673                 4.4499
 Frc consts  --      0.3947                 0.2531                 0.6966
 IR Inten    --     15.6585                28.4269                46.3136

                     19                     20                     21
                      A                      A                      A
 Frequencies --    596.4041               633.5841               715.5172
 Red. masses --      1.6124                 5.0850                 1.1858
 Frc consts  --      0.3379                 1.2027                 0.3577
 IR Inten    --    141.8984                10.5814                41.1223

                     22                     23                     24
                      A                      A                      A
 Frequencies --    800.5596               880.1589               950.8163
 Red. masses --      1.6638                 1.3755                 2.1239
 Frc consts  --      0.6282                 0.6278                 1.1313
 IR Inten    --     19.1682                 8.0313                12.7665

                     25                     26                     27
                      A                      A                      A
 Frequencies --   1000.7682              1011.9887              1018.2548
 Red. masses --      2.3100                 1.3640                 2.3333
 Frc consts  --      1.3631                 0.8231                 1.4254
 IR Inten    --      0.6163                 5.1927                 8.4925

                     28                     29                     30
                      A                      A                      A
 Frequencies --   1035.3728              1083.7809              1102.0148
 Red. masses --      1.6227                 1.5028                 2.8383
 Frc consts  --      1.0249                 1.0400                 2.0309
 IR Inten    --     86.0715                 8.7865                 8.0999

                     31                     32                     33
                      A                      A                      A
 Frequencies --   1125.6780              1147.2806              1164.0137
 Red. masses --      1.4768                 1.6027                 1.1305
 Frc consts  --      1.1025                 1.2429                 0.9025
 IR Inten    --      2.7601               186.6593                 6.6729

                     34                     35                     36
                      A                      A                      A
 Frequencies --   1171.8653              1202.7099              1208.2642
 Red. masses --      1.7351                 1.0661                 1.1152
 Frc consts  --      1.4039                 0.9086                 0.9592
 IR Inten    --     28.1788                54.4544                22.8953

                     37                     38                     39
                      A                      A                      A
 Frequencies --   1210.3458              1215.6375              1230.2965
 Red. masses --      1.1222                 1.0821                 1.1629
 Frc consts  --      0.9686                 0.9422                 1.0371
 IR Inten    --     76.5663                29.4334                80.4727

                     40                     41                     42
                      A                      A                      A
 Frequencies --   1262.0185              1275.3347              1293.9289
 Red. masses --      1.2253                 1.2125                 1.3185
 Frc consts  --      1.1498                 1.1620                 1.3007
 IR Inten    --     82.7823                53.1020                61.6301

                     43                     44                     45
                      A                      A                      A
 Frequencies --   1302.4326              1317.2656              1317.3913
 Red. masses --      1.7600                 1.7076                 1.7334
 Frc consts  --      1.7590                 1.7458                 1.7725
 IR Inten    --    179.0485               234.3260                85.5311

                     46                     47                     48
                      A                      A                      A
 Frequencies --   1420.5898              1792.6113              1840.4188
 Red. masses --      4.7468                11.0920                10.3204
 Frc consts  --      5.6440                21.0006                20.5959
 IR Inten    --     26.3499               227.9392               563.5869

                     49                     50                     51
                      A                      A                      A
 Frequencies --   2545.2952              2631.9635              2642.9357
 Red. masses --      1.0527                 1.0762                 1.0692
 Frc consts  --      4.0184                 4.3926                 4.4003
 IR Inten    --    273.1628                53.1455                 0.3735

                     52                     53                     54
                      A                      A                      A
 Frequencies --   2653.0447              2670.2415              2674.0783
 Red. masses --      1.0772                 1.0873                 1.0879
 Frc consts  --      4.4673                 4.5676                 4.5835
 IR Inten    --      2.1911               190.3263               113.2469

                     55                     56                     57
                      A                      A                      A
 Frequencies --   2678.2670              2709.7334              2734.0741
 Red. masses --      1.0869                 1.0472                 1.0422
 Frc consts  --      4.5934                 4.5305                 4.5903
 IR Inten    --    155.5142                55.5041                 1.2920

                     58                     59                     60
                      A                      A                      A
 Frequencies --   2747.4709              2778.1950              2821.3272
 Red. masses --      1.0566                 1.0320                 1.0972
 Frc consts  --      4.6991                 4.6933                 5.1458
 IR Inten    --     87.1731                72.5854                70.6838

 - Thermochemistry -
 -------------------
 Temperature   298.150 Kelvin.  Pressure   1.00000 Atm.
 Atom     1 has atomic number  6 and mass  12.00000

 Molecular mass:   144.07864 amu.
 Principal axes and moments of inertia in atomic units:
                           1         2         3
     Eigenvalues --  1045.948673329.243674127.13956
           X           -0.45906  -0.08028   0.88477
           Y            0.02333   0.99448   0.10234
           Z            0.88810  -0.06763   0.45465
 This molecule is an asymmetric top.
 Rotational symmetry number  1.
 Warning -- assumption of classical behavior for rotation
           may cause significant error
 Rotational temperatures (Kelvin)      0.08281     0.02602     0.02099
 Rotational constants (GHZ):           1.72546     0.54209     0.43729
    1 imaginary frequencies ignored.
 Zero-point vibrational energy     418859.8 (Joules/Mol)
                                  100.10989 (Kcal/Mol)
 Warning -- explicit consideration of  18 degrees of freedom as
           vibrations may cause significant error
 Vibrational temperatures:     22.71    25.44    36.03    65.75    74.55
          (Kelvin)             94.97   108.93   139.89   162.81   270.58
                              361.55   405.68   476.75   545.74   648.54
                              730.37   741.63   858.09   911.59  1029.47
                             1151.83  1266.35  1368.01  1439.88  1456.02
                             1465.04  1489.67  1559.32  1585.55  1619.60
                             1650.68  1674.75  1686.05  1730.43  1738.42
                             1741.42  1749.03  1770.12  1815.76  1834.92
                             1861.67  1873.91  1895.25  1895.43  2043.91
                             2579.16  2647.95  3662.11  3786.80  3802.59
                             3817.13  3841.88  3847.40  3853.42  3898.70
                             3933.72  3952.99  3997.20  4059.26

 Zero-point correction=                           0.159535 (Hartree/Particle)
 Thermal correction to Energy=                    0.173713
 Thermal correction to Enthalpy=                  0.174658
 Thermal correction to Gibbs Free Energy=         0.113237
 Sum of electronic and zero-point Energies=              0.054831
 Sum of electronic and thermal Energies=                 0.069009
 Sum of electronic and thermal Enthalpies=               0.069953
 Sum of electronic and thermal Free Energies=            0.008532

                     E (Thermal)             CV                S
                      KCal/Mol        Cal/Mol-Kelvin    Cal/Mol-Kelvin
 Total                  109.007             45.380            129.271
 Electronic               0.000              0.000              0.000
 Translational            0.889              2.981             40.807
 Rotational               0.889              2.981             31.042
 Vibrational            107.229             39.419             57.422
 Vibration     1          0.593              1.986              7.104
 Vibration     2          0.593              1.986              6.879
 Vibration     3          0.593              1.985              6.188
 Vibration     4          0.595              1.979              4.995
 Vibration     5          0.596              1.977              4.747
 Vibration     6          0.597              1.970              4.269
 Vibration     7          0.599              1.965              3.999
 Vibration     8          0.603              1.951              3.509
 Vibration     9          0.607              1.939              3.214
 Vibration    10          0.633              1.856              2.247
 Vibration    11          0.663              1.761              1.722
 Vibration    12          0.681              1.707              1.522
 Vibration    13          0.714              1.613              1.253
 Vibration    14          0.749              1.514              1.042
 Vibration    15          0.810              1.359              0.793
 Vibration    16          0.863              1.233              0.639
 Vibration    17          0.870              1.216              0.621
 Vibration    18          0.954              1.039              0.456

 Normal termination of Gaussian 09 at Tue Feb 16 10:25:34 2021.
