 Gaussian 09, Revision D.01,
 Gaussian 09:  ES64L-G09RevD.01 24-Apr-2013

 ----------------------------------------------------------------------
 #P pm6 scf=qc opt(calcall, ts, noeigentest, cartesian,maxcycle=100) No
 Symm
 ----------------------------------------------------------------------

 ------------------------------
 Gaussian input prepared by ASE
 ------------------------------
 Symbolic Z-matrix:
 Charge =  0 Multiplicity = 2

 SCF Done:  E(UPM6) = -0.989277857502E-01 a.u. after    9 cycles

 Alpha  occ. eigenvalues --   -1.21205  -1.19101  -1.14389  -1.07755  -1.06295
 Alpha  occ. eigenvalues --   -1.01694  -0.95886  -0.89100  -0.81745  -0.75644
 Alpha  occ. eigenvalues --   -0.72355  -0.68327  -0.65618  -0.63788  -0.61195
 Alpha  occ. eigenvalues --   -0.60033  -0.58420  -0.57106  -0.56739  -0.55631
 Alpha  occ. eigenvalues --   -0.54633  -0.52942  -0.51041  -0.50561  -0.49161
 Alpha  occ. eigenvalues --   -0.47376  -0.46763  -0.45704  -0.40005  -0.39274
 Alpha  occ. eigenvalues --   -0.38275  -0.33829
 Alpha virt. eigenvalues --   -0.00360   0.00659   0.02139   0.08256   0.09604
 Alpha virt. eigenvalues --    0.10957   0.11681   0.12015   0.12391   0.13534
 Alpha virt. eigenvalues --    0.15015   0.15724   0.16579   0.17254   0.17640

  Beta  occ. eigenvalues --   -1.19225  -1.19077  -1.12010  -1.06858  -1.03050
  Beta  occ. eigenvalues --   -0.98992  -0.95276  -0.88572  -0.80846  -0.74403
  Beta  occ. eigenvalues --   -0.71604  -0.67148  -0.64471  -0.62623  -0.60259
  Beta  occ. eigenvalues --   -0.59372  -0.57931  -0.55945  -0.55376  -0.54130
  Beta  occ. eigenvalues --   -0.53917  -0.52196  -0.50842  -0.50486  -0.47722
  Beta  occ. eigenvalues --   -0.47078  -0.45367  -0.45152  -0.39209  -0.36425
  Beta  occ. eigenvalues --   -0.34319
  Beta virt. eigenvalues --   -0.04496  -0.00051   0.01475   0.03552   0.08317
  Beta virt. eigenvalues --    0.10376   0.11439   0.11859   0.12400   0.12567
  Beta virt. eigenvalues --    0.13644   0.15024   0.16815   0.17254   0.17445

 Mulliken charges and spin densities:
               1          2
     1  O   -0.367922   0.186413
     2  C    0.363735   0.277766
     3  C   -0.417801   0.064369
     4  C   -0.209939  -0.004143
     5  C   -0.296649   0.005553
     6  C   -0.128777  -0.033806
     7  H    0.155855   0.004175
     8  C    0.563929  -0.001090
     9  O   -0.458473  -0.001018
    10  C   -0.641446  -0.002099
    11  H    0.194712  -0.136138
    12  H    0.218735  -0.002281
    13  H    0.178521   0.010156
    14  H    0.143998   0.000977
    15  H    0.139315   0.000193
    16  H    0.146499  -0.000855
    17  H    0.170278  -0.000292
    18  H    0.199773   0.000058
    19  H    0.202612  -0.000008
    20  H    0.190741   0.000071
    21  O   -0.273354   0.508896
    22  O   -0.074343   0.123104
 Sum of Mulliken charges =   0.00000   1.00000

 Dipole moment (field-independent basis, Debye):
    X=              4.5063    Y=             -1.1036    Z=             -2.7469  Tot=              5.3916
 N-N= 4.027036935116D+02 E-N=-7.251464241716D+02  KE=-3.754412092615D+01
  Exact polarizability:  55.500  -2.398 115.074  -7.572  42.331 109.695
 Approx polarizability:  40.946  -4.516  64.719  -4.180  14.683  67.997
 Leave Link  601 at Wed Feb 17 08:27:25 2021, MaxMem=    33554432 cpu:         0.0
 (Enter /cm/shared/apps/Gaussian09/g09/l701.exe)
 Compute integral second derivatives.
 ... and contract with generalized density number  0.
 Leave Link  701 at Wed Feb 17 08:27:25 2021, MaxMem=    33554432 cpu:         0.1
 (Enter /cm/shared/apps/Gaussian09/g09/l702.exe)
 L702 exits ... SP integral derivatives will be done elsewhere.

 Optimization completed.
    -- Stationary point found.

                          Input orientation:
 ---------------------------------------------------------------------
 Center     Atomic      Atomic             Coordinates (Angstroms)
 Number     Number       Type             X           Y           Z
 ---------------------------------------------------------------------
      1          8           0       -1.155237    1.814529    3.272074
      2          6           0       -1.041595    1.240109    2.239362
      3          6           0       -0.608009    1.692488    0.888322
      4          6           0        0.793670    1.179334    0.538369
      5          6           0        0.941661   -0.346334    0.607385
      6          6           0       -0.072746   -1.147333   -0.204559
      7          1           0        0.188852   -2.226874   -0.202227
      8          6           0       -0.268698   -0.603530   -1.623639
      9          8           0       -1.058515    0.273379   -1.877283
     10          6           0        0.601173   -1.244790   -2.662608
     11          1           0       -1.353722   -0.048212    2.206570
     12          1           0       -1.337959    1.316415    0.119482
     13          1           0       -0.641881    2.799968    0.819793
     14          1           0        1.046993    1.538037   -0.481612
     15          1           0        1.540750    1.643700    1.215103
     16          1           0        1.967501   -0.626613    0.293686
     17          1           0        0.853588   -0.682960    1.667341
     18          1           0        0.262682   -2.266582   -2.890389
     19          1           0        0.565063   -0.684646   -3.610808
     20          1           0        1.652412   -1.309161   -2.356580
     21          8           0       -1.430778   -1.239385    1.667552
     22          8           0       -1.445205   -1.071538    0.374666
 ---------------------------------------------------------------------

 ******    1 imaginary frequencies (negative Signs) ******

                      1                      2                      3
                      A                      A                      A
 Frequencies --  -2660.2216                35.3967                46.4361
 Red. masses --      1.1572                 3.8474                 6.2981
 Frc consts  --      4.8248                 0.0028                 0.0080
 IR Inten    --  15608.7439                 4.0098                 1.6931

                      4                      5                      6
                      A                      A                      A
 Frequencies --     84.1233                97.9747               152.2651
 Red. masses --      1.0281                 5.5618                 4.8708
 Frc consts  --      0.0043                 0.0315                 0.0665
 IR Inten    --      0.7774                 6.1877                 3.4171

                      7                      8                      9
                      A                      A                      A
 Frequencies --    173.6971               185.5078               227.3994
 Red. masses --      2.9078                 4.4950                 4.6772
 Frc consts  --      0.0517                 0.0911                 0.1425
 IR Inten    --      2.7383                 5.4343                 0.3990

                     10                     11                     12
                      A                      A                      A
 Frequencies --    292.8149               315.9560               350.0536
 Red. masses --      2.4001                 5.7430                 3.3489
 Frc consts  --      0.1212                 0.3378                 0.2418
 IR Inten    --      2.2661                 9.1687                 1.8515

                     13                     14                     15
                      A                      A                      A
 Frequencies --    372.0862               414.3332               469.5489
 Red. masses --      4.1637                 2.9553                 3.3255
 Frc consts  --      0.3396                 0.2989                 0.4320
 IR Inten    --      2.9793                 6.2974                 7.8702

                     16                     17                     18
                      A                      A                      A
 Frequencies --    541.7458               554.0624               569.5780
 Red. masses --      3.3214                 5.1594                 4.1810
 Frc consts  --      0.5743                 0.9332                 0.7992
 IR Inten    --      0.9478                 5.8483                13.6327

                     19                     20                     21
                      A                      A                      A
 Frequencies --    656.1950               799.4746               807.2246
 Red. masses --      2.8568                 1.6059                 1.5802
 Frc consts  --      0.7248                 0.6048                 0.6067
 IR Inten    --     26.7268                52.5573                 4.2104

                     22                     23                     24
                      A                      A                      A
 Frequencies --    879.7539               887.3094               965.7012
 Red. masses --      2.1951                 3.1007                 2.0802
 Frc consts  --      1.0010                 1.4383                 1.1430
 IR Inten    --     11.9972                 6.9762                 7.2425

                     25                     26                     27
                      A                      A                      A
 Frequencies --    980.0802              1003.4771              1013.8121
 Red. masses --      1.8420                 2.0245                 1.7810
 Frc consts  --      1.0425                 1.2011                 1.0785
 IR Inten    --      9.5909                44.9166                24.2993

                     28                     29                     30
                      A                      A                      A
 Frequencies --   1033.0077              1048.7977              1087.5812
 Red. masses --      2.1541                 3.7335                 1.6000
 Frc consts  --      1.3543                 2.4196                 1.1150
 IR Inten    --     53.5006                48.9033                13.3810

                     31                     32                     33
                      A                      A                      A
 Frequencies --   1115.2581              1135.5510              1163.5012
 Red. masses --      1.4086                 1.5470                 1.4215
 Frc consts  --      1.0322                 1.1753                 1.1338
 IR Inten    --     39.4671                14.3909                 6.1939

                     34                     35                     36
                      A                      A                      A
 Frequencies --   1173.8892              1177.1334              1210.7487
 Red. masses --      1.1982                 1.5702                 1.0917
 Frc consts  --      0.9729                 1.2819                 0.9429
 IR Inten    --      2.9473                80.4320                61.1279

                     37                     38                     39
                      A                      A                      A
 Frequencies --   1218.3725              1223.1816              1229.1941
 Red. masses --      1.9023                 1.0971                 1.6453
 Frc consts  --      1.6637                 0.9671                 1.4647
 IR Inten    --     18.3141                78.6776                17.3458

                     40                     41                     42
                      A                      A                      A
 Frequencies --   1250.7472              1260.1652              1267.7685
 Red. masses --      1.1474                 1.2833                 1.8301
 Frc consts  --      1.0575                 1.2007                 1.7330
 IR Inten    --     63.0376                19.5218                30.6296

                     43                     44                     45
                      A                      A                      A
 Frequencies --   1274.9472              1293.3522              1314.4810
 Red. masses --      1.2835                 1.9167                 1.4617
 Frc consts  --      1.2292                 1.8890                 1.4881
 IR Inten    --     31.6956               157.0324               135.0613

                     46                     47                     48
                      A                      A                      A
 Frequencies --   1317.4535              1334.6614              1341.8619
 Red. masses --      1.4168                 1.4324                 1.0839
 Frc consts  --      1.4489                 1.5033                 1.1499
 IR Inten    --     82.2855                19.1616                16.2690

                     49                     50                     51
                      A                      A                      A
 Frequencies --   1810.6052              1905.6068              2619.7492
 Red. masses --     11.5861                10.6235                 1.0792
 Frc consts  --     22.3787                22.7291                 4.3637
 IR Inten    --    264.1743               356.4124                66.6459

                     52                     53                     54
                      A                      A                      A
 Frequencies --   2651.2149              2667.9843              2681.2624
 Red. masses --      1.0800                 1.0884                 1.0815
 Frc consts  --      4.4728                 4.5647                 4.5809
 IR Inten    --     24.3213                84.5786                50.7316

                     55                     56                     57
                      A                      A                      A
 Frequencies --   2686.3536              2691.6791              2716.7516
 Red. masses --      1.0710                 1.0881                 1.0535
 Frc consts  --      4.5535                 4.6447                 4.5815
 IR Inten    --    128.8396               103.6429                93.7829

                     58                     59                     60
                      A                      A                      A
 Frequencies --   2731.5355              2735.0192              2787.2175
 Red. masses --      1.0501                 1.0485                 1.0315
 Frc consts  --      4.6162                 4.6212                 4.7213
 IR Inten    --     53.1607                44.9210               113.5236

 - Thermochemistry -
 -------------------
 Temperature   298.150 Kelvin.  Pressure   1.00000 Atm.
 Atom     1 has atomic number  8 and mass  15.99491

 Molecular mass:   159.06573 amu.
 Principal axes and moments of inertia in atomic units:
                           1         2         3
     Eigenvalues --   924.300912461.809952715.95474
           X           -0.19531   0.46999   0.86079
           Y            0.42675   0.83097  -0.35688
           Z            0.88303  -0.29765   0.36287
 This molecule is an asymmetric top.
 Rotational symmetry number  1.
 Warning -- assumption of classical behavior for rotation
           may cause significant error
 Rotational temperatures (Kelvin)      0.09371     0.03518     0.03189
 Rotational constants (GHZ):           1.95255     0.73310     0.66450
    1 imaginary frequencies ignored.
 Zero-point vibrational energy     412906.9 (Joules/Mol)
                                   98.68711 (Kcal/Mol)
 Warning -- explicit consideration of  17 degrees of freedom as
           vibrations may cause significant error
 Vibrational temperatures:     50.93    66.81   121.03   140.96   219.08
          (Kelvin)            249.91   266.90   327.18   421.29   454.59
                              503.65   535.35   596.13   675.58   779.45
                              797.17   819.49   944.12  1150.26  1161.41
                             1265.77  1276.64  1389.43  1410.12  1443.78
                             1458.65  1486.27  1508.98  1564.78  1604.61
                             1633.80  1674.02  1688.96  1693.63  1742.00
                             1752.96  1759.88  1768.53  1799.54  1813.09
                             1824.03  1834.36  1860.84  1891.24  1895.52
                             1920.28  1930.64  2605.05  2741.74  3769.23
                             3814.50  3838.63  3857.73  3865.06  3872.72
                             3908.79  3930.07  3935.08  4010.18

 Zero-point correction=                           0.157268 (Hartree/Particle)
 Thermal correction to Energy=                    0.169202
 Thermal correction to Enthalpy=                  0.170147
 Thermal correction to Gibbs Free Energy=         0.117754
 Sum of electronic and zero-point Energies=              0.058340
 Sum of electronic and thermal Energies=                 0.070275
 Sum of electronic and thermal Enthalpies=               0.071219
 Sum of electronic and thermal Free Energies=            0.018826

                     E (Thermal)             CV                S
                      KCal/Mol        Cal/Mol-Kelvin    Cal/Mol-Kelvin
 Total                  106.176             42.977            110.269
 Electronic               0.000              0.000              1.377
 Translational            0.889              2.981             41.102
 Rotational               0.889              2.981             30.203
 Vibrational            104.399             37.015             37.587
 Vibration     1          0.594              1.982              5.501
 Vibration     2          0.595              1.979              4.964
 Vibration     3          0.601              1.960              3.792
 Vibration     4          0.603              1.951              3.494
 Vibration     5          0.619              1.900              2.644
 Vibration     6          0.627              1.875              2.395
 Vibration     7          0.632              1.860              2.272
 Vibration     8          0.651              1.799              1.899
 Vibration     9          0.688              1.687              1.458
 Vibration    10          0.703              1.643              1.331
 Vibration    11          0.727              1.575              1.166
 Vibration    12          0.744              1.529              1.071
 Vibration    13          0.778              1.439              0.911
 Vibration    14          0.827              1.318              0.739
 Vibration    15          0.897              1.158              0.562
 Vibration    16          0.909              1.131              0.536
 Vibration    17          0.926              1.097              0.505

 Normal termination of Gaussian 09 at Wed Feb 17 08:27:25 2021.
