 Gaussian 09, Revision D.01,
 Gaussian 09:  ES64L-G09RevD.01 24-Apr-2013

 ----------------------------------------------------------------------
 #P pm6 scf=qc opt(calcall, ts, noeigentest, cartesian,maxcycle=100) No
 Symm
 ----------------------------------------------------------------------

 ------------------------------
 Gaussian input prepared by ASE
 ------------------------------
 Symbolic Z-matrix:
 Charge =  0 Multiplicity = 2

 SCF Done:  E(UPM6) = -0.882937480791E-01 a.u. after   12 cycles
 SCF Done:  E(UPM6) = -0.889916477195E-01 a.u. after    9 cycles
 SCF Done:  E(UPM6) = -0.896043925515E-01 a.u. after    7 cycles
 SCF Done:  E(UPM6) = -0.900056927721E-01 a.u. after    5 cycles
 SCF Done:  E(UPM6) = -0.904256266402E-01 a.u. after    5 cycles
 SCF Done:  E(UPM6) = -0.906802130896E-01 a.u. after    5 cycles
 SCF Done:  E(UPM6) = -0.908605253443E-01 a.u. after    7 cycles
 SCF Done:  E(UPM6) = -0.910010057445E-01 a.u. after    7 cycles
 SCF Done:  E(UPM6) = -0.910994428330E-01 a.u. after    7 cycles
 SCF Done:  E(UPM6) = -0.911676355832E-01 a.u. after    7 cycles
 SCF Done:  E(UPM6) = -0.927313656797E-01 a.u. after    6 cycles
 SCF Done:  E(UPM6) = -0.927877436078E-01 a.u. after    4 cycles
 SCF Done:  E(UPM6) = -0.927399821791E-01 a.u. after    6 cycles
 SCF Done:  E(UPM6) = -0.928005868885E-01 a.u. after    3 cycles
 SCF Done:  E(UPM6) = -0.927477057137E-01 a.u. after    6 cycles
 SCF Done:  E(UPM6) = -0.928075138792E-01 a.u. after    3 cycles
 SCF Done:  E(UPM6) = -0.927925128190E-01 a.u. after    5 cycles
 SCF Done:  E(UPM6) = -0.928089862782E-01 a.u. after    3 cycles
 SCF Done:  E(UPM6) = -0.928090091566E-01 a.u. after    4 cycles
 SCF Done:  E(UPM6) = -0.928090140156E-01 a.u. after    2 cycles
 Optimization completed.
    -- Stationary point found.

                          Input orientation:
 ---------------------------------------------------------------------
 Center     Atomic      Atomic             Coordinates (Angstroms)
 Number     Number       Type             X           Y           Z
 ---------------------------------------------------------------------
      1          8           0       -2.813588    0.671840    3.219493
      2          6           0       -3.261841    1.642673    3.619112
      3          6           0        0.503748    2.396215    0.547699
      4          6           0        1.528883    1.454859    0.071237
      5          6           0        1.126383   -0.021899    0.196155
      6          6           0       -0.119352   -0.428277   -0.600333
      7          1           0       -0.184508   -1.540621   -0.680470
      8          6           0       -0.186449    0.217612   -1.995483
      9          8           0       -0.900241    1.152003   -2.252785
     10          6           0        0.709264   -0.432200   -3.012643
     11          1           0       -2.038488   -0.626770    1.664550
     12          1           0       -0.514120    2.085486    0.669862
     13          1           0        0.745071    3.418108    0.735441
     14          1           0        1.770769    1.701723   -0.989532
     15          1           0        2.481271    1.614964    0.624942
     16          1           0        1.978773   -0.662917   -0.100083
     17          1           0        0.927120   -0.253264    1.265407
     18          1           0        0.787948    0.188269   -3.918978
     19          1           0        1.725156   -0.601119   -2.637691
     20          1           0        0.307384   -1.404007   -3.331715
     21          8           0       -1.773537   -1.100685    0.815309
     22          8           0       -1.319477    0.035555    0.073965
 ---------------------------------------------------------------------

 Alpha  occ. eigenvalues --   -1.25047  -1.17819  -1.10000  -1.06670  -1.03100
 Alpha  occ. eigenvalues --   -0.99295  -0.91607  -0.83635  -0.75917  -0.74748
 Alpha  occ. eigenvalues --   -0.70901  -0.68358  -0.62473  -0.60407  -0.59342
 Alpha  occ. eigenvalues --   -0.58506  -0.58343  -0.57446  -0.55452  -0.54512
 Alpha  occ. eigenvalues --   -0.51892  -0.51205  -0.50270  -0.49036  -0.47536
 Alpha  occ. eigenvalues --   -0.45930  -0.45563  -0.44810  -0.43042  -0.37348
 Alpha  occ. eigenvalues --   -0.35138  -0.33768
 Alpha virt. eigenvalues --    0.00504   0.01973   0.03810   0.03815   0.09502
 Alpha virt. eigenvalues --    0.10509   0.12642   0.13407   0.14398   0.16617
 Alpha virt. eigenvalues --    0.16634   0.17171   0.18281   0.18578   0.19200

  Beta  occ. eigenvalues --   -1.25047  -1.17817  -1.09983  -1.06630  -1.02996
  Beta  occ. eigenvalues --   -0.99128  -0.91314  -0.83260  -0.75296  -0.74742
  Beta  occ. eigenvalues --   -0.70761  -0.68305  -0.62396  -0.60244  -0.59288
  Beta  occ. eigenvalues --   -0.58506  -0.58323  -0.57166  -0.55291  -0.54143
  Beta  occ. eigenvalues --   -0.51679  -0.50817  -0.49982  -0.48900  -0.46936
  Beta  occ. eigenvalues --   -0.45536  -0.45227  -0.44787  -0.42906  -0.37345
  Beta  occ. eigenvalues --   -0.35093
  Beta virt. eigenvalues --    0.00501   0.01973   0.03810   0.03815   0.04127
  Beta virt. eigenvalues --    0.09501   0.10510   0.12661   0.13405   0.14433
  Beta virt. eigenvalues --    0.16623   0.17159   0.17695   0.18295   0.18588

 Mulliken charges and spin densities:
               1          2
     1  O   -0.355856   0.000000
     2  C    0.358904   0.000001
     3  C   -0.319577   1.061090
     4  C   -0.238065  -0.055899
     5  C   -0.300576   0.006718
     6  C   -0.047151  -0.000433
     7  H    0.164462   0.000140
     8  C    0.553246   0.000085
     9  O   -0.439597  -0.000028
    10  C   -0.643354   0.000014
    11  H    0.303648   0.000097
    12  H    0.157615  -0.033736
    13  H    0.136433  -0.034045
    14  H    0.147650   0.037195
    15  H    0.141815   0.020472
    16  H    0.137681  -0.000869
    17  H    0.162987  -0.000508
    18  H    0.199774  -0.000001
    19  H    0.188204  -0.000001
    20  H    0.195260   0.000012
    21  O   -0.332182  -0.000392
    22  O   -0.171322   0.000090
 Sum of Mulliken charges =   0.00000   1.00000

 Dipole moment (field-independent basis, Debye):
    X=              3.2086    Y=             -1.8441    Z=              0.9488  Tot=              3.8204
 N-N= 3.805349379215D+02 E-N=-6.820832290016D+02  KE=-3.698267292717D+01
  Exact polarizability:  58.661  -9.730  67.726 -10.525   0.642  62.361
 Approx polarizability:  40.923 -10.169  51.408  -7.172  -1.313  38.473
 Leave Link  601 at Thu Feb 18 18:44:03 2021, MaxMem=    33554432 cpu:         0.0
 (Enter /apps/applications/gaussian/G09.D01/2/default/g09/l716.exe)
 Dipole        = 1.26234177D+00-7.25540470D-01 3.73274656D-01
 Polarizability= 5.86606159D+01-9.73021738D+00 6.77258836D+01
                -1.05251655D+01 6.41743809D-01 6.23609477D+01
 HyperPolar    = 5.74699451D+01-2.04301897D+01-1.05264733D+01
                -2.69797687D+01 1.38814319D+01-2.38531201D+01

 ******    1 imaginary frequencies (negative Signs) ******

                      1                      2                      3
                      A                      A                      A
 Frequencies --    -10.9851                 9.5060                18.0079
 Red. masses --      5.9889                 7.6005                 7.4329
 Frc consts  --      0.0004                 0.0004                 0.0014
 IR Inten    --      1.7937                 2.2531                 0.4719

                      4                      5                      6
                      A                      A                      A
 Frequencies --     30.6456                34.4726                51.0328
 Red. masses --      3.4475                 6.6839                 4.0513
 Frc consts  --      0.0019                 0.0047                 0.0062
 IR Inten    --      0.9963                 1.9529                 4.0424

                      7                      8                      9
                      A                      A                      A
 Frequencies --     74.0469                78.6344                91.1343
 Red. masses --     11.2497                 1.0717                 7.6976
 Frc consts  --      0.0363                 0.0039                 0.0377
 IR Inten    --      0.9575                 0.1517                 1.1510

                     10                     11                     12
                      A                      A                      A
 Frequencies --    116.0201               120.9596               162.9708
 Red. masses --      2.9340                 1.0907                 3.2860
 Frc consts  --      0.0233                 0.0094                 0.0514
 IR Inten    --      0.1313                 0.1907                 0.2864

                     13                     14                     15
                      A                      A                      A
 Frequencies --    178.4940               239.9769               295.2276
 Red. masses --      4.7506                 1.1593                 2.6084
 Frc consts  --      0.0892                 0.0393                 0.1340
 IR Inten    --      6.6380                98.8357                 1.4072

                     16                     17                     18
                      A                      A                      A
 Frequencies --    314.0075               374.7276               422.6677
 Red. masses --      3.4534                 4.0570                 4.5907
 Frc consts  --      0.2006                 0.3356                 0.4832
 IR Inten    --      1.2239                 5.8312                 4.0753

                     19                     20                     21
                      A                      A                      A
 Frequencies --    477.8067               557.3858               645.2899
 Red. masses --      2.4425                 3.8188                 2.7090
 Frc consts  --      0.3285                 0.6990                 0.6646
 IR Inten    --      0.5726                12.0303                35.1252

                     22                     23                     24
                      A                      A                      A
 Frequencies --    763.2677               841.8206               887.2140
 Red. masses --      1.2776                 1.5472                 2.3432
 Frc consts  --      0.4385                 0.6460                 1.0867
 IR Inten    --     81.5094                10.4509                18.7275

                     25                     26                     27
                      A                      A                      A
 Frequencies --    904.2901               956.5441              1003.2921
 Red. masses --      2.1084                 1.5662                 2.4484
 Frc consts  --      1.0158                 0.8443                 1.4521
 IR Inten    --      0.9965                 8.6596                13.3606

                     28                     29                     30
                      A                      A                      A
 Frequencies --   1014.6937              1017.9971              1040.4650
 Red. masses --      2.1859                 2.0042                 1.8053
 Frc consts  --      1.3260                 1.2237                 1.1515
 IR Inten    --     45.2330                48.2960                13.7523

                     31                     32                     33
                      A                      A                      A
 Frequencies --   1058.4424              1124.8280              1166.1700
 Red. masses --      1.9362                 1.2095                 1.8397
 Frc consts  --      1.2780                 0.9016                 1.4741
 IR Inten    --     18.3685                11.4699                43.3666

                     34                     35                     36
                      A                      A                      A
 Frequencies --   1178.3420              1190.7866              1211.7658
 Red. masses --      2.1753                 1.6131                 1.1454
 Frc consts  --      1.7795                 1.3476                 0.9909
 IR Inten    --     17.3955                 1.8548                39.0176

                     37                     38                     39
                      A                      A                      A
 Frequencies --   1221.2185              1227.4414              1229.4875
 Red. masses --      1.3586                 1.0855                 1.4917
 Frc consts  --      1.1938                 0.9636                 1.3285
 IR Inten    --     89.9600                67.2040                 7.8743

                     40                     41                     42
                      A                      A                      A
 Frequencies --   1254.9692              1259.4148              1273.9894
 Red. masses --      1.2895                 1.3314                 1.4620
 Frc consts  --      1.1965                 1.2442                 1.3981
 IR Inten    --     11.4834                40.1553                82.6924

                     43                     44                     45
                      A                      A                      A
 Frequencies --   1308.9597              1317.6653              1327.0121
 Red. masses --      1.8573                 1.2194                 1.1058
 Frc consts  --      1.8749                 1.2474                 1.1473
 IR Inten    --     43.1067               162.6905                17.0263

                     46                     47                     48
                      A                      A                      A
 Frequencies --   1357.2746              1400.1374              1822.4182
 Red. masses --      2.4466                 1.2046                11.7677
 Frc consts  --      2.6556                 1.3914                23.0271
 IR Inten    --      6.8539                39.3395               293.8964

                     49                     50                     51
                      A                      A                      A
 Frequencies --   2036.7359              2627.0578              2649.4302
 Red. masses --     13.4057                 1.0613                 1.0783
 Frc consts  --     32.7650                 4.3155                 4.4594
 IR Inten    --    342.0769               327.4221                22.4426

                     52                     53                     54
                      A                      A                      A
 Frequencies --   2666.9798              2671.2641              2686.0860
 Red. masses --      1.0695                 1.0809                 1.0867
 Frc consts  --      4.4821                 4.5444                 4.6194
 IR Inten    --     40.9684                69.9689               129.8122

                     55                     56                     57
                      A                      A                      A
 Frequencies --   2694.3749              2721.4569              2738.5569
 Red. masses --      1.0883                 1.0552                 1.0491
 Frc consts  --      4.6548                 4.6044                 4.6354
 IR Inten    --    100.8689                 5.6488                50.0948

                     58                     59                     60
                      A                      A                      A
 Frequencies --   2741.6145              2780.9801              2788.7207
 Red. masses --      1.0941                 1.0453                 1.0312
 Frc consts  --      4.8453                 4.7631                 4.7252
 IR Inten    --     87.0323                25.1505                84.2972

 - Thermochemistry -
 -------------------
 Temperature   298.150 Kelvin.  Pressure   1.00000 Atm.
 Atom     1 has atomic number  8 and mass  15.99491

 Molecular mass:   159.06573 amu.
 Principal axes and moments of inertia in atomic units:
                           1         2         3
     Eigenvalues --  1187.462893337.276393723.07243
           X           -0.53845   0.63662  -0.55208
           Y            0.10184   0.69952   0.70731
           Z            0.83648   0.32463  -0.44149
 This molecule is an asymmetric top.
 Rotational symmetry number  1.
 Warning -- assumption of classical behavior for rotation
           may cause significant error
 Rotational temperatures (Kelvin)      0.07294     0.02595     0.02326
 Rotational constants (GHZ):           1.51983     0.54078     0.48475
    1 imaginary frequencies ignored.
 Zero-point vibrational energy     403477.6 (Joules/Mol)
                                   96.43345 (Kcal/Mol)
 Warning -- explicit consideration of  19 degrees of freedom as
           vibrations may cause significant error
 Vibrational temperatures:     13.68    25.91    44.09    49.60    73.42
          (Kelvin)            106.54   113.14   131.12   166.93   174.03
                              234.48   256.81   345.27   424.77   451.79
                              539.15   608.12   687.46   801.95   928.43
                             1098.17  1211.19  1276.50  1301.07  1376.25
                             1443.51  1459.92  1464.67  1497.00  1522.86
                             1618.37  1677.86  1695.37  1713.27  1743.46
                             1757.06  1766.01  1768.96  1805.62  1812.01
                             1832.98  1883.30  1895.82  1909.27  1952.81
                             2014.48  2622.05  2930.41  3779.75  3811.93
                             3837.18  3843.35  3864.67  3876.60  3915.56
                             3940.17  3944.57  4001.21  4012.34

 Zero-point correction=                           0.153676 (Hartree/Particle)
 Thermal correction to Energy=                    0.169061
 Thermal correction to Enthalpy=                  0.170005
 Thermal correction to Gibbs Free Energy=         0.104780
 Sum of electronic and zero-point Energies=              0.060867
 Sum of electronic and thermal Energies=                 0.076252
 Sum of electronic and thermal Enthalpies=               0.077196
 Sum of electronic and thermal Free Energies=            0.011971

                     E (Thermal)             CV                S
                      KCal/Mol        Cal/Mol-Kelvin    Cal/Mol-Kelvin
 Total                  106.087             48.155            137.277
 Electronic               0.000              0.000              1.377
 Translational            0.889              2.981             41.102
 Rotational               0.889              2.981             31.068
 Vibrational            104.310             42.193             63.730
 Vibration     1          0.593              1.987              8.112
 Vibration     2          0.593              1.986              6.843
 Vibration     3          0.594              1.984              5.787
 Vibration     4          0.594              1.983              5.554
 Vibration     5          0.595              1.977              4.777
 Vibration     6          0.599              1.966              4.043
 Vibration     7          0.600              1.964              3.925
 Vibration     8          0.602              1.955              3.636
 Vibration     9          0.608              1.936              3.166
 Vibration    10          0.609              1.932              3.085
 Vibration    11          0.623              1.888              2.515
 Vibration    12          0.629              1.869              2.344
 Vibration    13          0.657              1.779              1.803
 Vibration    14          0.689              1.683              1.444
 Vibration    15          0.702              1.647              1.341
 Vibration    16          0.746              1.524              1.060
 Vibration    17          0.785              1.421              0.883
 Vibration    18          0.834              1.299              0.716
 Vibration    19          0.913              1.124              0.529

 Normal termination of Gaussian 09 at Thu Feb 18 18:44:03 2021.
