 Gaussian 09, Revision D.01,
 Gaussian 09:  ES64L-G09RevD.01 24-Apr-2013

 ----------------------------------------------------------------------
 #P b3lyp/3-21G scf=qc opt(calcall, ts, noeigentest, cartesian,maxcycle
 =100)
 ----------------------------------------------------------------------

 ------------------------------
 Gaussian input prepared by ASE
 ------------------------------
 Symbolic Z-matrix:
 Charge =  0 Multiplicity = 2

 SCF Done:  E(UB3LYP) =  -191.310403111     a.u. after    7 cycles
 SCF Done:  E(UB3LYP) =  -191.315275228     a.u. after   10 cycles
 SCF Done:  E(UB3LYP) =  -191.319896446     a.u. after   11 cycles
 SCF Done:  E(UB3LYP) =  -191.324519848     a.u. after    8 cycles
 SCF Done:  E(UB3LYP) =  -191.327242080     a.u. after    8 cycles
 SCF Done:  E(UB3LYP) =  -191.328418322     a.u. after    8 cycles
 SCF Done:  E(UB3LYP) =  -191.328630217     a.u. after    6 cycles
 SCF Done:  E(UB3LYP) =  -191.328644503     a.u. after    4 cycles
 SCF Done:  E(UB3LYP) =  -191.328645522     a.u. after    3 cycles
 SCF Done:  E(UB3LYP) =  -191.328645547     a.u. after    2 cycles
 Optimization completed.
    -- Stationary point found.

                         Standard orientation:
 ---------------------------------------------------------------------
 Center     Atomic      Atomic             Coordinates (Angstroms)
 Number     Number       Type             X           Y           Z
 ---------------------------------------------------------------------
      1          6           0       -1.472826    0.090216   -0.004896
      2          6           0        0.017651    0.070722   -0.011967
      3          1           0       -1.849793    1.113970   -0.037727
      4          1           0       -1.844011   -0.403365    0.901694
      5          1           0       -1.865050   -0.466303   -0.863984
      6          6           0        1.017400    1.017431   -0.053918
      7          1           0        0.936784    2.051584    0.279231
      8          8           0        0.695360   -1.122424    0.030051
      9          1           0        1.685840   -0.386709   -0.094931
 ---------------------------------------------------------------------

 The electronic state is 2-A.
 Alpha  occ. eigenvalues --  -19.08049 -10.21223 -10.14385 -10.13213  -1.06371
 Alpha  occ. eigenvalues --   -0.77887  -0.71592  -0.54463  -0.50123  -0.45745
 Alpha  occ. eigenvalues --   -0.45105  -0.40457  -0.38137  -0.35862  -0.24314
 Alpha  occ. eigenvalues --   -0.23494
 Alpha virt. eigenvalues --    0.00254   0.09108   0.13845   0.15380   0.17144
 Alpha virt. eigenvalues --    0.18800   0.22638   0.28686   0.41864   0.64717
 Alpha virt. eigenvalues --    0.68373   0.70596   0.75350   0.76155   0.83142

  Beta  occ. eigenvalues --  -19.06987 -10.21200 -10.14387 -10.12388  -1.04154
  Beta  occ. eigenvalues --   -0.77174  -0.69671  -0.53760  -0.48917  -0.44832
  Beta  occ. eigenvalues --   -0.44663  -0.40079  -0.35355  -0.33662  -0.22142
  Beta virt. eigenvalues --   -0.11834   0.03123   0.09975   0.14067   0.15592
  Beta virt. eigenvalues --    0.17574   0.19375   0.23078   0.29419   0.42781
  Beta virt. eigenvalues --    0.65275   0.69392   0.70659   0.75772   0.79052

 Mulliken charges and spin densities:
               1          2
     1  C   -0.633797  -0.004023
     2  C    0.265978  -0.006895
     3  H    0.217082   0.000200
     4  H    0.238665   0.010182
     5  H    0.235842   0.001280
     6  C   -0.361724   0.636809
     7  H    0.173835  -0.018788
     8  O   -0.445089   0.413964
     9  H    0.309206  -0.032729
 Sum of Mulliken charges =   0.00000   1.00000

 Dipole moment (field-independent basis, Debye):
    X=             -1.9479    Y=              1.0146    Z=              0.4356  Tot=              2.2391
 Quadrupole moment (field-independent basis, Debye-Ang):
   XX=            -23.9511   YY=            -25.6852   ZZ=            -25.1287
   XY=             -0.3003   XZ=              0.8468   YZ=              0.9768

  Exact polarizability:  40.936   4.194  40.620  -0.223   0.744  18.891
 Approx polarizability:  54.322   9.644  80.653  -1.980  -1.588  23.430

 ******    1 imaginary frequencies (negative Signs) ******

                      1                      2                      3
                      A                      A                      A
 Frequencies --  -2168.6759                92.0139               359.4548
 Red. masses --      1.1040                 1.0809                 2.8993
 Frc consts  --      3.0591                 0.0054                 0.2207
 IR Inten    --    239.2325                 0.9793                 1.4880

                      4                      5                      6
                      A                      A                      A
 Frequencies --    436.8795               456.8771               675.6103
 Red. masses --      1.8559                 1.8469                 2.5139
 Frc consts  --      0.2087                 0.2271                 0.6761
 IR Inten    --     24.4851                23.3556                10.9213

                      7                      8                      9
                      A                      A                      A
 Frequencies --    795.1348               960.6694              1013.5856
 Red. masses --      1.8604                 4.9069                 1.4162
 Frc consts  --      0.6930                 2.6681                 0.8572
 IR Inten    --    129.2061                42.6245                14.8637

                     10                     11                     12
                      A                      A                      A
 Frequencies --   1095.8742              1098.3985              1238.4714
 Red. masses --      1.5484                 1.1811                 2.7782
 Frc consts  --      1.0956                 0.8396                 2.5106
 IR Inten    --     38.3630                18.2734                11.5201

                     13                     14                     15
                      A                      A                      A
 Frequencies --   1413.8369              1461.8820              1538.5409
 Red. masses --      4.6547                 1.1857                 1.0501
 Frc consts  --      5.4820                 1.4930                 1.4645
 IR Inten    --     92.2444                 5.8729                10.3880

                     16                     17                     18
                      A                      A                      A
 Frequencies --   1554.5877              2034.3950              3056.5535
 Red. masses --      1.0827                 1.0827                 1.0365
 Frc consts  --      1.5417                 2.6401                 5.7054
 IR Inten    --      9.5348                18.6471                 3.9807

                     19                     20                     21
                      A                      A                      A
 Frequencies --   3104.4784              3154.1098              3158.8899
 Red. masses --      1.0968                 1.0982                 1.0943
 Frc consts  --      6.2282                 6.4371                 6.4335
 IR Inten    --      5.0791                 4.8673                10.4473

 - Thermochemistry -
 -------------------
 Temperature   298.150 Kelvin.  Pressure   1.00000 Atm.
 Atom     1 has atomic number  6 and mass  12.00000

 Molecular mass:    57.03404 amu.
 Principal axes and moments of inertia in atomic units:
                           1         2         3
     Eigenvalues --   144.20702 221.03544 353.09134
           X            0.99945   0.03321   0.00208
           Y           -0.03324   0.99931   0.01647
           Z           -0.00153  -0.01653   0.99986
 This molecule is an asymmetric top.
 Rotational symmetry number  1.
 Rotational temperatures (Kelvin)      0.60062     0.39185     0.24530
 Rotational constants (GHZ):          12.51493     8.16494     5.11126
    1 imaginary frequencies ignored.
 Zero-point vibrational energy     171665.6 (Joules/Mol)
                                   41.02906 (Kcal/Mol)
 Warning -- explicit consideration of   4 degrees of freedom as
           vibrations may cause significant error
 Vibrational temperatures:    132.39   517.17   628.57   657.34   972.05
          (Kelvin)           1144.02  1382.19  1458.32  1576.72  1580.35
                             1781.88  2034.19  2103.32  2213.61  2236.70
                             2927.04  4397.69  4466.65  4538.05  4544.93

 Zero-point correction=                           0.065384 (Hartree/Particle)
 Thermal correction to Energy=                    0.070217
 Thermal correction to Enthalpy=                  0.071162
 Thermal correction to Gibbs Free Energy=         0.037585
 Sum of electronic and zero-point Energies=           -191.263262
 Sum of electronic and thermal Energies=              -191.258428
 Sum of electronic and thermal Enthalpies=            -191.257484
 Sum of electronic and thermal Free Energies=         -191.291061

                     E (Thermal)             CV                S
                      KCal/Mol        Cal/Mol-Kelvin    Cal/Mol-Kelvin
 Total                   44.062             15.599             70.669
 Electronic               0.000              0.000              1.377
 Translational            0.889              2.981             38.044
 Rotational               0.889              2.981             23.935
 Vibrational             42.285              9.637              7.311
 Vibration     1          0.602              1.955              3.617
 Vibration     2          0.734              1.556              1.124
 Vibration     3          0.797              1.390              0.836
 Vibration     4          0.815              1.346              0.775

 Normal termination of Gaussian 09 at Fri Jan  8 05:52:00 2021.
