 Gaussian 09, Revision D.01,
 Gaussian 09:  ES64L-G09RevD.01 24-Apr-2013

 ----------------------------------------------------------------------
 #P upm6 scf=qc opt(calcall, ts, noeigentest, cartesian,maxcycle=100) N
 oSymm, guess=mix
 ----------------------------------------------------------------------

 ------------------------------
 Gaussian input prepared by ASE
 ------------------------------
 Symbolic Z-matrix:
 Charge =  0 Multiplicity = 2

 SCF Done:  E(UPM6) = -0.157409682053     a.u. after   19 cycles
 SCF Done:  E(UPM6) = -0.158882241732     a.u. after    4 cycles
 SCF Done:  E(UPM6) = -0.159817131479     a.u. after    5 cycles
 SCF Done:  E(UPM6) = -0.160469949677     a.u. after    5 cycles
 SCF Done:  E(UPM6) = -0.161144002176     a.u. after    5 cycles
 SCF Done:  E(UPM6) = -0.161493626965     a.u. after    4 cycles
 SCF Done:  E(UPM6) = -0.161588446907     a.u. after    5 cycles
 SCF Done:  E(UPM6) = -0.161604821541     a.u. after    4 cycles
 SCF Done:  E(UPM6) = -0.161611241050     a.u. after    4 cycles
 SCF Done:  E(UPM6) = -0.161610840312     a.u. after    4 cycles
 SCF Done:  E(UPM6) = -0.162789654959     a.u. after    4 cycles
 SCF Done:  E(UPM6) = -0.162795025482     a.u. after    4 cycles
 SCF Done:  E(UPM6) = -0.162805419378     a.u. after    4 cycles
 SCF Done:  E(UPM6) = -0.162804914650     a.u. after    4 cycles
 SCF Done:  E(UPM6) = -0.162821228470     a.u. after    3 cycles
 SCF Done:  E(UPM6) = -0.162817742469     a.u. after    4 cycles
 SCF Done:  E(UPM6) = -0.162832848982     a.u. after    3 cycles
 SCF Done:  E(UPM6) = -0.162823438910     a.u. after    4 cycles
 SCF Done:  E(UPM6) = -0.162837624438     a.u. after    3 cycles
 SCF Done:  E(UPM6) = -0.162837723515     a.u. after    3 cycles
 Optimization completed.
    -- Stationary point found.

                          Input orientation:
 ---------------------------------------------------------------------
 Center     Atomic      Atomic             Coordinates (Angstroms)
 Number     Number       Type             X           Y           Z
 ---------------------------------------------------------------------
      1          8           0       -1.274827    1.455143    3.519786
      2          6           0       -1.559405    1.840473    2.429750
      3          6           0       -2.556211    1.406563    1.417137
      4          6           0       -3.959451    1.913841    1.777431
      5          6           0       -4.116768    3.419414    1.518599
      6          6           0       -5.348015    3.767610    0.679570
      7          1           0       -5.461373    4.869547    0.550162
      8          6           0       -5.313728    3.110539   -0.716949
      9          8           0       -4.316786    3.193123   -1.395971
     10          6           0       -6.561714    2.420698   -1.153476
     11          1           0       -7.863656    4.390611    1.983042
     12          1           0       -2.268938    1.778648    0.400003
     13          1           0       -2.553105    0.296857    1.345480
     14          1           0       -4.704878    1.336849    1.191264
     15          1           0       -4.192025    1.682543    2.837115
     16          1           0       -4.162924    3.966335    2.481336
     17          1           0       -3.219396    3.819902    0.985232
     18          1           0       -7.424737    3.108115   -1.139507
     19          1           0       -6.469542    2.004420   -2.165481
     20          1           0       -6.834018    1.606375   -0.463858
     21          8           0       -6.465863    3.265244    1.460529
     22          8           0       -7.597268    4.042527    1.079523
     23          8           0       -0.915267    3.526708    0.960243
     24          8           0       -0.688599    3.054554    2.035769
 ---------------------------------------------------------------------

 Alpha  occ. eigenvalues --   -1.26000  -1.21511  -1.18106  -1.12430  -1.10993
 Alpha  occ. eigenvalues --   -1.09506  -1.06294  -0.99330  -0.97499  -0.88752
 Alpha  occ. eigenvalues --   -0.82247  -0.76718  -0.72415  -0.70681  -0.69804
 Alpha  occ. eigenvalues --   -0.67505  -0.65833  -0.64139  -0.63395  -0.59976
 Alpha  occ. eigenvalues --   -0.58388  -0.57490  -0.56578  -0.55460  -0.53870
 Alpha  occ. eigenvalues --   -0.53381  -0.51480  -0.50231  -0.49408  -0.48640
 Alpha  occ. eigenvalues --   -0.47404  -0.46736  -0.45859  -0.44954  -0.40782
 Alpha  occ. eigenvalues --   -0.39860  -0.37290  -0.36730
 Alpha virt. eigenvalues --   -0.01506  -0.00386  -0.00126   0.01139   0.07166
 Alpha virt. eigenvalues --    0.08206   0.08904   0.10330   0.11144   0.12217
 Alpha virt. eigenvalues --    0.12507   0.13386   0.14976   0.15810   0.16360

  Beta  occ. eigenvalues --   -1.21936  -1.18206  -1.17998  -1.12424  -1.09490
  Beta  occ. eigenvalues --   -1.06262  -1.01421  -0.99301  -0.97435  -0.88547
  Beta  occ. eigenvalues --   -0.81732  -0.75711  -0.72361  -0.70597  -0.68604
  Beta  occ. eigenvalues --   -0.64422  -0.63357  -0.62436  -0.61112  -0.58849
  Beta  occ. eigenvalues --   -0.57330  -0.56972  -0.55675  -0.54067  -0.53713
  Beta  occ. eigenvalues --   -0.52600  -0.51133  -0.50251  -0.49291  -0.48539
  Beta  occ. eigenvalues --   -0.46740  -0.46684  -0.45729  -0.44946  -0.39872
  Beta  occ. eigenvalues --   -0.36730  -0.34043
  Beta virt. eigenvalues --   -0.03358  -0.01503   0.01139   0.01878   0.02325
  Beta virt. eigenvalues --    0.08177   0.08611   0.08906   0.10722   0.12020
  Beta virt. eigenvalues --    0.12220   0.12544   0.13385   0.14947   0.15810

 Mulliken charges and spin densities:
               1          2
     1  O   -0.382247  -0.031301
     2  C    0.480621  -0.119987
     3  C   -0.418750  -0.020945
     4  C   -0.207277   0.000036
     5  C   -0.300237   0.001240
     6  C   -0.056677  -0.000049
     7  H    0.167345   0.000003
     8  C    0.541632   0.000005
     9  O   -0.478059  -0.000001
    10  C   -0.621041  -0.000002
    11  H    0.292059  -0.000005
    12  H    0.212211   0.000155
    13  H    0.187967  -0.001452
    14  H    0.150908  -0.000440
    15  H    0.147503  -0.000086
    16  H    0.157567  -0.000023
    17  H    0.186236  -0.000567
    18  H    0.206682   0.000000
    19  H    0.193109   0.000000
    20  H    0.201683   0.000000
    21  O   -0.189938   0.000058
    22  O   -0.313894   0.000016
    23  O   -0.186573   0.702927
    24  O    0.029168   0.470417
 Sum of Mulliken charges =   0.00000   1.00000

 Dipole moment (field-independent basis, Debye):
    X=             -3.6635    Y=             -0.2935    Z=              0.7566  Tot=              3.7523
 N-N= 5.154944017168D+02 E-N=-9.348021121868D+02  KE=-4.417042630750D+01
  Exact polarizability:  84.284   4.542  65.076  -0.128 -15.057  86.978
 Approx polarizability:  58.280   3.418  46.846  -4.555 -15.510  66.889
 Leave Link  601 at Thu Feb  4 14:29:57 2021, MaxMem=    33554432 cpu:         0.0
 (Enter /apps/applications/gaussian/G09.D01/2/default/g09/l716.exe)
 Dipole        =-1.44134071D+00-1.15489264D-01 2.97685846D-01
 Polarizability= 8.42836387D+01 4.54177290D+00 6.50756234D+01
                -1.28294935D-01-1.50573609D+01 8.69782994D+01
 HyperPolar    =-4.22846808D+01-3.34390794D+00-4.20151765D+01
                -7.71193388D+01 3.13309038D+01 3.31008876D+01

 ******    1 imaginary frequencies (negative Signs) ******

                      1                      2                      3
                      A                      A                      A
 Frequencies --    -32.7596                23.9860                28.2379
 Red. masses --      5.6655                 8.4209                 3.5253
 Frc consts  --      0.0036                 0.0029                 0.0017
 IR Inten    --      2.7172                 1.4425                 4.8708

                      4                      5                      6
                      A                      A                      A
 Frequencies --     46.8658                52.8244                57.1787
 Red. masses --      2.7960                 4.8472                 2.3716
 Frc consts  --      0.0036                 0.0080                 0.0046
 IR Inten    --      5.8171                 0.3661                 0.4472

                      7                      8                      9
                      A                      A                      A
 Frequencies --     97.1463               110.8528               116.9067
 Red. masses --      1.9231                14.9643                 7.9490
 Frc consts  --      0.0107                 0.1083                 0.0640
 IR Inten    --      1.1941                 3.4771                 3.1460

                     10                     11                     12
                      A                      A                      A
 Frequencies --    173.1478               194.8981               229.9200
 Red. masses --      1.2095                 3.5099                 3.2664
 Frc consts  --      0.0214                 0.0786                 0.1017
 IR Inten    --     71.4891                 9.7802                 6.7006

                     13                     14                     15
                      A                      A                      A
 Frequencies --    246.0975               262.5914               340.6653
 Red. masses --      3.7718                 3.5142                 4.2009
 Frc consts  --      0.1346                 0.1428                 0.2872
 IR Inten    --      4.8689                 3.4894                 5.1095

                     16                     17                     18
                      A                      A                      A
 Frequencies --    371.5810               425.9854               439.7680
 Red. masses --      2.5693                 4.9253                 3.8944
 Frc consts  --      0.2090                 0.5266                 0.4438
 IR Inten    --      1.1950                23.8200                12.2173

                     19                     20                     21
                      A                      A                      A
 Frequencies --    471.2593               522.1118               526.8161
 Red. masses --      4.3479                 4.5128                 5.8041
 Frc consts  --      0.5689                 0.7248                 0.9491
 IR Inten    --     13.0768                 3.0268                 0.2201

                     22                     23                     24
                      A                      A                      A
 Frequencies --    612.7383               656.4775               711.5533
 Red. masses --      5.7638                 2.9520                 5.7373
 Frc consts  --      1.2750                 0.7496                 1.7115
 IR Inten    --     10.3831                11.5702                23.6994

                     25                     26                     27
                      A                      A                      A
 Frequencies --    815.0844               866.6086               877.0999
 Red. masses --      2.0383                 2.1305                 1.9819
 Frc consts  --      0.7978                 0.9427                 0.8983
 IR Inten    --     11.8251                 9.6597                27.5508

                     28                     29                     30
                      A                      A                      A
 Frequencies --    953.2914               989.5399              1005.1996
 Red. masses --      1.9313                 2.0743                 5.3022
 Frc consts  --      1.0341                 1.1967                 3.1566
 IR Inten    --     18.6509                10.1351                10.3822

                     31                     32                     33
                      A                      A                      A
 Frequencies --   1007.1376              1022.8296              1070.2284
 Red. masses --      1.7271                 1.9178                 1.6652
 Frc consts  --      1.0321                 1.1821                 1.1237
 IR Inten    --     28.4707                81.6310                 7.5528

                     34                     35                     36
                      A                      A                      A
 Frequencies --   1082.6131              1097.5316              1143.1029
 Red. masses --      2.2961                 1.4396                 1.5214
 Frc consts  --      1.5856                 1.0217                 1.1713
 IR Inten    --      3.1332                 4.2062                57.8700

                     37                     38                     39
                      A                      A                      A
 Frequencies --   1146.9999              1177.0010              1187.2501
 Red. masses --      2.5731                 2.7947                 1.4552
 Frc consts  --      1.9945                 2.2811                 1.2086
 IR Inten    --     44.0788               143.2430                79.1136

                     40                     41                     42
                      A                      A                      A
 Frequencies --   1196.7000              1209.5991              1213.7782
 Red. masses --      1.1427                 2.0790                 1.6550
 Frc consts  --      0.9642                 1.7922                 1.4366
 IR Inten    --     44.9136                21.3024                36.5637

                     43                     44                     45
                      A                      A                      A
 Frequencies --   1222.1014              1225.8628              1242.8791
 Red. masses --      1.0679                 1.7900                 1.1603
 Frc consts  --      0.9397                 1.5848                 1.0560
 IR Inten    --     65.6973                 1.7643                57.5605

                     46                     47                     48
                      A                      A                      A
 Frequencies --   1250.9686              1261.9590              1271.0549
 Red. masses --      1.1236                 1.5742                 2.2413
 Frc consts  --      1.0360                 1.4771                 2.1334
 IR Inten    --     17.1863               108.3586                23.7907

                     49                     50                     51
                      A                      A                      A
 Frequencies --   1286.7027              1313.9768              1316.5357
 Red. masses --      1.3025                 1.3453                 1.2726
 Frc consts  --      1.2706                 1.3685                 1.2996
 IR Inten    --    127.1688               122.6031               116.5686

                     52                     53                     54
                      A                      A                      A
 Frequencies --   1321.5298              1391.3527              1805.4419
 Red. masses --      1.4641                 1.1571                12.1272
 Frc consts  --      1.5066                 1.3198                23.2904
 IR Inten    --     11.3375                30.6760               293.1007

                     55                     56                     57
                      A                      A                      A
 Frequencies --   1895.8774              2636.9127              2639.2616
 Red. masses --     12.3741                 1.0820                 1.0804
 Frc consts  --     26.2050                 4.4326                 4.4339
 IR Inten    --    328.9097                45.2124                79.1900

                     58                     59                     60
                      A                      A                      A
 Frequencies --   2648.8485              2660.6799              2670.7477
 Red. masses --      1.0613                 1.0847                 1.0675
 Frc consts  --      4.3875                 4.5241                 4.4863
 IR Inten    --    174.1779                74.2895                16.8694

                     61                     62                     63
                      A                      A                      A
 Frequencies --   2673.5520              2695.9038              2720.8197
 Red. masses --      1.0811                 1.0900                 1.0516
 Frc consts  --      4.5529                 4.6673                 4.5868
 IR Inten    --    176.6513               103.5930               103.0166

                     64                     65                     66
                      A                      A                      A
 Frequencies --   2725.2429              2738.9537              2783.9043
 Red. masses --      1.0502                 1.0527                 1.0314
 Frc consts  --      4.5953                 4.6528                 4.7095
 IR Inten    --     59.4720                55.1407                79.0479

 - Thermochemistry -
 -------------------
 Temperature   298.150 Kelvin.  Pressure   1.00000 Atm.
 Atom     1 has atomic number  8 and mass  15.99491

 Molecular mass:   191.05556 amu.
 Principal axes and moments of inertia in atomic units:
                           1         2         3
     Eigenvalues --  1279.918064630.489445081.67533
           X            0.91063  -0.39376   0.12528
           Y           -0.18375  -0.11433   0.97630
           Z            0.37011   0.91207   0.17647
 This molecule is an asymmetric top.
 Rotational symmetry number  1.
 Warning -- assumption of classical behavior for rotation
           may cause significant error
 Rotational temperatures (Kelvin)      0.06767     0.01871     0.01704
 Rotational constants (GHZ):           1.41004     0.38975     0.35515
    1 imaginary frequencies ignored.
 Zero-point vibrational energy     437727.2 (Joules/Mol)
                                  104.61931 (Kcal/Mol)
 Warning -- explicit consideration of  21 degrees of freedom as
           vibrations may cause significant error
 Vibrational temperatures:     34.51    40.63    67.43    76.00    82.27
          (Kelvin)            139.77   159.49   168.20   249.12   280.41
                              330.80   354.08   377.81   490.14   534.62
                              612.90   632.73   678.04   751.20   757.97
                              881.59   944.52  1023.77  1172.72  1246.85
                             1261.95  1371.57  1423.73  1446.26  1449.04
                             1471.62  1539.82  1557.64  1579.10  1644.67
                             1650.27  1693.44  1708.19  1721.78  1740.34
                             1746.35  1758.33  1763.74  1788.22  1799.86
                             1815.68  1828.76  1851.28  1890.52  1894.20
                             1901.38  2001.84  2597.62  2727.74  3793.92
                             3797.30  3811.10  3828.12  3842.61  3846.64
                             3878.80  3914.65  3921.01  3940.74  4005.41

 Zero-point correction=                           0.166721 (Hartree/Particle)
 Thermal correction to Energy=                    0.181668
 Thermal correction to Enthalpy=                  0.182612
 Thermal correction to Gibbs Free Energy=         0.120919
 Sum of electronic and zero-point Energies=              0.003884
 Sum of electronic and thermal Energies=                 0.018830
 Sum of electronic and thermal Enthalpies=               0.019774
 Sum of electronic and thermal Free Energies=           -0.041919

                     E (Thermal)             CV                S
                      KCal/Mol        Cal/Mol-Kelvin    Cal/Mol-Kelvin
 Total                  113.998             50.893            129.845
 Electronic               0.000              0.000              1.377
 Translational            0.889              2.981             41.648
 Rotational               0.889              2.981             31.777
 Vibrational            112.221             44.931             55.042
 Vibration     1          0.593              1.985              6.273
 Vibration     2          0.593              1.984              5.950
 Vibration     3          0.595              1.979              4.945
 Vibration     4          0.596              1.976              4.709
 Vibration     5          0.596              1.975              4.552
 Vibration     6          0.603              1.951              3.511
 Vibration     7          0.607              1.940              3.254
 Vibration     8          0.608              1.935              3.151
 Vibration     9          0.627              1.876              2.401
 Vibration    10          0.636              1.847              2.181
 Vibration    11          0.652              1.795              1.880
 Vibration    12          0.661              1.769              1.758
 Vibration    13          0.670              1.741              1.644
 Vibration    14          0.720              1.594              1.209
 Vibration    15          0.743              1.531              1.073
 Vibration    16          0.788              1.414              0.872
 Vibration    17          0.800              1.383              0.827
 Vibration    18          0.828              1.314              0.734
 Vibration    19          0.877              1.201              0.605
 Vibration    20          0.882              1.191              0.594
 Vibration    21          0.972              1.005              0.428

 Normal termination of Gaussian 09 at Thu Feb  4 14:29:57 2021.
