 Gaussian 09, Revision D.01,
 Gaussian 09:  ES64L-G09RevD.01 24-Apr-2013

 ----------------------------------------------------------------------
 #P b3lyp/3-21G scf=qc opt(calcall, ts, noeigentest, cartesian,maxcycle
 =100) NoSymm
 ----------------------------------------------------------------------

 ------------------------------
 Gaussian input prepared by ASE
 ------------------------------
 Symbolic Z-matrix:
 Charge =  0 Multiplicity = 2

 SCF Done:  E(UB3LYP) =  -191.327539467     a.u. after    7 cycles
 SCF Done:  E(UB3LYP) =  -191.329550836     a.u. after   13 cycles
 SCF Done:  E(UB3LYP) =  -191.330549387     a.u. after    5 cycles
 SCF Done:  E(UB3LYP) =  -191.330550469     a.u. after    5 cycles
 SCF Done:  E(UB3LYP) =  -191.330583160     a.u. after    4 cycles
 SCF Done:  E(UB3LYP) =  -191.330586064     a.u. after    5 cycles
 SCF Done:  E(UB3LYP) =  -191.330622657     a.u. after    4 cycles
 SCF Done:  E(UB3LYP) =  -191.330649877     a.u. after    5 cycles
 SCF Done:  E(UB3LYP) =  -191.330734359     a.u. after    5 cycles
 SCF Done:  E(UB3LYP) =  -191.330816382     a.u. after    5 cycles
 SCF Done:  E(UB3LYP) =  -191.331253098     a.u. after    8 cycles
 SCF Done:  E(UB3LYP) =  -191.331516119     a.u. after    6 cycles
 SCF Done:  E(UB3LYP) =  -191.331788804     a.u. after    9 cycles
 SCF Done:  E(UB3LYP) =  -191.331812718     a.u. after    7 cycles
 SCF Done:  E(UB3LYP) =  -191.331768824     a.u. after    8 cycles
 SCF Done:  E(UB3LYP) =  -191.332018352     a.u. after    5 cycles
 SCF Done:  E(UB3LYP) =  -191.331980177     a.u. after    9 cycles
 SCF Done:  E(UB3LYP) =  -191.332108673     a.u. after    4 cycles
 SCF Done:  E(UB3LYP) =  -191.332110485     a.u. after    4 cycles
 SCF Done:  E(UB3LYP) =  -191.332111005     a.u. after    3 cycles
 Optimization completed.
    -- Stationary point found.

                          Input orientation:
 ---------------------------------------------------------------------
 Center     Atomic      Atomic             Coordinates (Angstroms)
 Number     Number       Type             X           Y           Z
 ---------------------------------------------------------------------
      1          6           0        0.661545   -0.580143   -0.873855
      2          6           0        0.007471    0.505962   -0.138751
      3          1           0       -0.096942   -1.217870   -1.337528
      4          1           0        1.239409   -1.205655   -0.187273
      5          1           0        1.325049   -0.179488   -1.647579
      6          6           0       -0.420498    1.547214    0.324751
      7          1           0       -0.836031    2.427795    0.747959
      8          8           0       -1.127772   -0.828048    1.121964
      9          1           0       -0.752232   -0.469767    1.990313
 ---------------------------------------------------------------------

 Alpha  occ. eigenvalues --  -19.02796 -10.14986 -10.13794 -10.12770  -0.94405
 Alpha  occ. eigenvalues --   -0.78548  -0.71368  -0.53948  -0.46014  -0.43907
 Alpha  occ. eigenvalues --   -0.43016  -0.39337  -0.35102  -0.28024  -0.25863
 Alpha  occ. eigenvalues --   -0.24137
 Alpha virt. eigenvalues --    0.05343   0.06286   0.11813   0.13441   0.15910
 Alpha virt. eigenvalues --    0.19981   0.20311   0.25527   0.48812   0.67152
 Alpha virt. eigenvalues --    0.69767   0.73829   0.78432   0.78929   0.87951

  Beta  occ. eigenvalues --  -19.00750 -10.15053 -10.13776 -10.12354  -0.88854
  Beta  occ. eigenvalues --   -0.78121  -0.70807  -0.53567  -0.45889  -0.43536
  Beta  occ. eigenvalues --   -0.42984  -0.37290  -0.28630  -0.27449  -0.23500
  Beta virt. eigenvalues --   -0.08053   0.05561   0.07694   0.12501   0.13825
  Beta virt. eigenvalues --    0.16200   0.20012   0.20373   0.25576   0.49058
  Beta virt. eigenvalues --    0.67360   0.69861   0.75177   0.78726   0.79743

 Mulliken charges and spin densities:
               1          2
     1  C   -0.645446   0.011913
     2  C    0.096781  -0.111637
     3  H    0.246270  -0.001590
     4  H    0.230223  -0.001764
     5  H    0.212072  -0.006252
     6  C   -0.315376   0.295004
     7  H    0.244903  -0.013447
     8  O   -0.384604   0.859033
     9  H    0.315176  -0.031260
 Sum of Mulliken charges =   0.00000   1.00000

 Dipole moment (field-independent basis, Debye):
    X=              1.2596    Y=              0.5844    Z=              0.5678  Tot=              1.5002
 Quadrupole moment (field-independent basis, Debye-Ang):
   XX=            -26.1761   YY=            -22.1010   ZZ=            -19.8595
   XY=             -2.9482   XZ=             -0.8658   YZ=              2.0950

  Exact polarizability:  24.055  -1.674  45.418  -8.068   1.090  31.873
 Approx polarizability:  31.839  -3.047  76.931 -10.582   5.823  39.572

 ******    1 imaginary frequencies (negative Signs) ******

                      1                      2                      3
                      A                      A                      A
 Frequencies --   -165.5195               114.5384               147.5505
 Red. masses --      7.8694                 1.1402                 1.7575
 Frc consts  --      0.1270                 0.0088                 0.0225
 IR Inten    --      8.6311                12.6388                43.0944

                      4                      5                      6
                      A                      A                      A
 Frequencies --    231.3751               307.9096               353.0574
 Red. masses --      1.5817                 3.2692                 2.9102
 Frc consts  --      0.0499                 0.1826                 0.2137
 IR Inten    --     28.6289                10.8438                 6.9275

                      7                      8                      9
                      A                      A                      A
 Frequencies --    618.3557               649.9649               697.7164
 Red. masses --      1.2232                 1.0788                 1.2667
 Frc consts  --      0.2756                 0.2685                 0.3633
 IR Inten    --     67.9338                60.8818                54.7644

                     10                     11                     12
                      A                      A                      A
 Frequencies --    915.1613              1091.1445              1113.4193
 Red. masses --      4.7976                 1.3612                 1.3983
 Frc consts  --      2.3674                 0.9549                 1.0213
 IR Inten    --      0.8626                 0.5193                 4.5717

                     13                     14                     15
                      A                      A                      A
 Frequencies --   1468.9283              1540.4338              1545.7063
 Red. masses --      1.1879                 1.0402                 1.0357
 Frc consts  --      1.5101                 1.4543                 1.4579
 IR Inten    --      3.8055                 8.3491                11.2201

                     16                     17                     18
                      A                      A                      A
 Frequencies --   2165.5120              3062.1902              3127.1413
 Red. masses --      6.0577                 1.0333                 1.0989
 Frc consts  --     16.7370                 5.7087                 6.3316
 IR Inten    --     25.5928                10.9258                 8.1086

                     19                     20                     21
                      A                      A                      A
 Frequencies --   3129.9302              3324.1308              3491.1747
 Red. masses --      1.0987                 1.0677                 1.1549
 Frc consts  --      6.3419                 6.9512                 8.2934
 IR Inten    --      4.2819                 8.1249                61.0929

 - Thermochemistry -
 -------------------
 Temperature   298.150 Kelvin.  Pressure   1.00000 Atm.
 Atom     1 has atomic number  6 and mass  12.00000

 Molecular mass:    57.03404 amu.
 Principal axes and moments of inertia in atomic units:
                           1         2         3
     Eigenvalues --   206.66191 240.41037 430.91436
           X           -0.64612  -0.07753   0.75929
           Y           -0.10611   0.99429   0.01123
           Z            0.75583   0.07331   0.65066
 This molecule is an asymmetric top.
 Rotational symmetry number  1.
 Rotational temperatures (Kelvin)      0.41911     0.36027     0.20100
 Rotational constants (GHZ):           8.73282     7.50692     4.18817
    1 imaginary frequencies ignored.
 Zero-point vibrational energy     174028.8 (Joules/Mol)
                                   41.59388 (Kcal/Mol)
 Warning -- explicit consideration of   6 degrees of freedom as
           vibrations may cause significant error
 Vibrational temperatures:    164.79   212.29   332.90   443.01   507.97
          (Kelvin)            889.67   935.15  1003.86  1316.71  1569.91
                             1601.96  2113.46  2216.34  2223.92  3115.68
                             4405.80  4499.25  4503.27  4782.68  5023.02

 Zero-point correction=                           0.066284 (Hartree/Particle)
 Thermal correction to Energy=                    0.072266
 Thermal correction to Enthalpy=                  0.073210
 Thermal correction to Gibbs Free Energy=         0.037255
 Sum of electronic and zero-point Energies=           -191.265827
 Sum of electronic and thermal Energies=              -191.259845
 Sum of electronic and thermal Enthalpies=            -191.258901
 Sum of electronic and thermal Free Energies=         -191.294856

                     E (Thermal)             CV                S
                      KCal/Mol        Cal/Mol-Kelvin    Cal/Mol-Kelvin
 Total                   45.347             18.835             75.672
 Electronic               0.000              0.000              1.377
 Translational            0.889              2.981             38.044
 Rotational               0.889              2.981             24.574
 Vibrational             43.570             12.873             11.676
 Vibration     1          0.607              1.937              3.191
 Vibration     2          0.617              1.905              2.704
 Vibration     3          0.653              1.793              1.868
 Vibration     4          0.698              1.659              1.374
 Vibration     5          0.729              1.569              1.153
 Vibration     6          0.978              0.993              0.419

 Normal termination of Gaussian 09 at Wed Jan  6 16:29:36 2021.
