 Gaussian 09, Revision D.01,
 Gaussian 09:  ES64L-G09RevD.01 24-Apr-2013

 ----------------------------------------------------------------------
 #P upm6 scf=qc opt(calcall, ts, noeigentest, cartesian,maxcycle=100) N
 oSymm, guess=mix
 ----------------------------------------------------------------------

 ------------------------------
 Gaussian input prepared by ASE
 ------------------------------
 Symbolic Z-matrix:
 Charge =  0 Multiplicity = 2

 SCF Done:  E(UPM6) = -0.947543480903E-01 a.u. after   18 cycles
 SCF Done:  E(UPM6) = -0.985418526559E-01 a.u. after    8 cycles
 SCF Done:  E(UPM6) = -0.102560105033     a.u. after    6 cycles
 SCF Done:  E(UPM6) = -0.104756794170     a.u. after    5 cycles
 SCF Done:  E(UPM6) = -0.106191315151     a.u. after    4 cycles
 SCF Done:  E(UPM6) = -0.107173773463     a.u. after    5 cycles
 SCF Done:  E(UPM6) = -0.107839979018     a.u. after    5 cycles
 SCF Done:  E(UPM6) = -0.108308765094     a.u. after    5 cycles
 SCF Done:  E(UPM6) = -0.108748409153     a.u. after    5 cycles
 SCF Done:  E(UPM6) = -0.109177517755     a.u. after    5 cycles
 SCF Done:  E(UPM6) = -0.111629127528     a.u. after    5 cycles
 SCF Done:  E(UPM6) = -0.111730307098     a.u. after    5 cycles
 SCF Done:  E(UPM6) = -0.111866394991     a.u. after    4 cycles
 SCF Done:  E(UPM6) = -0.112024191673     a.u. after    4 cycles
 SCF Done:  E(UPM6) = -0.112188023366     a.u. after    4 cycles
 SCF Done:  E(UPM6) = -0.112320464235     a.u. after    4 cycles
 SCF Done:  E(UPM6) = -0.112372167854     a.u. after    5 cycles
 SCF Done:  E(UPM6) = -0.112381086821     a.u. after    4 cycles
 SCF Done:  E(UPM6) = -0.112381688286     a.u. after    3 cycles
 SCF Done:  E(UPM6) = -0.112381706196     a.u. after    3 cycles
 Optimization completed.
    -- Stationary point found.

                          Input orientation:
 ---------------------------------------------------------------------
 Center     Atomic      Atomic             Coordinates (Angstroms)
 Number     Number       Type             X           Y           Z
 ---------------------------------------------------------------------
      1          8           0       -1.418152    0.473802    2.295806
      2          6           0       -2.313623    1.184472    2.091617
      3          6           0       -3.177522    2.129930    1.612826
      4          6           0       -4.449036    1.666670    0.933393
      5          6           0       -5.697607    1.904648    1.793885
      6          6           0       -6.405393    3.234585    1.511728
      7          1           0       -7.210640    3.438305    2.258120
      8          6           0       -5.444077    4.440688    1.487468
      9          8           0       -4.756454    4.663327    2.461731
     10          6           0       -5.418277    5.267649    0.252671
     11          1           0       -8.815875    3.253164   -0.230666
     12          1           0       -3.284500    3.048298    2.229813
     13          1           0       -2.521176    2.856116    0.542109
     14          1           0       -4.551885    2.197386   -0.047880
     15          1           0       -4.382875    0.593385    0.662680
     16          1           0       -6.422995    1.080900    1.623367
     17          1           0       -5.438389    1.863045    2.873383
     18          1           0       -5.003215    6.268472    0.433533
     19          1           0       -4.788251    4.790025   -0.523025
     20          1           0       -6.418008    5.376119   -0.201983
     21          8           0       -7.018018    3.034585    0.210407
     22          8           0       -8.167927    3.884931    0.202192
     23          8           0       -3.189259    3.453852   -1.278515
     24          8           0       -2.257567    3.460443   -0.566108
 ---------------------------------------------------------------------

 Alpha  occ. eigenvalues --   -1.26642  -1.24177  -1.17811  -1.12103  -1.10018
 Alpha  occ. eigenvalues --   -1.09103  -1.05956  -0.99029  -0.97629  -0.89147
 Alpha  occ. eigenvalues --   -0.80683  -0.74051  -0.71857  -0.70823  -0.68743
 Alpha  occ. eigenvalues --   -0.66031  -0.64610  -0.64112  -0.63313  -0.60801
 Alpha  occ. eigenvalues --   -0.59365  -0.58345  -0.56777  -0.55858  -0.53980
 Alpha  occ. eigenvalues --   -0.53513  -0.53015  -0.50411  -0.49108  -0.48564
 Alpha  occ. eigenvalues --   -0.47412  -0.46158  -0.45853  -0.43036  -0.39427
 Alpha  occ. eigenvalues --   -0.39007  -0.36432  -0.35342
 Alpha virt. eigenvalues --   -0.01309  -0.00150   0.01154   0.01921   0.05234
 Alpha virt. eigenvalues --    0.08395   0.09083   0.09793   0.11330   0.12000
 Alpha virt. eigenvalues --    0.12808   0.13576   0.15204   0.15904   0.16274

  Beta  occ. eigenvalues --   -1.26801  -1.17839  -1.16076  -1.12087  -1.09260
  Beta  occ. eigenvalues --   -1.06297  -0.99462  -0.97802  -0.96458  -0.89309
  Beta  occ. eigenvalues --   -0.80765  -0.73771  -0.71883  -0.70804  -0.65618
  Beta  occ. eigenvalues --   -0.64222  -0.63823  -0.61436  -0.60963  -0.59301
  Beta  occ. eigenvalues --   -0.57652  -0.56942  -0.56010  -0.54590  -0.53753
  Beta  occ. eigenvalues --   -0.53241  -0.52518  -0.50323  -0.48919  -0.48335
  Beta  occ. eigenvalues --   -0.47303  -0.46137  -0.45818  -0.40887  -0.39365
  Beta  occ. eigenvalues --   -0.36403  -0.28049
  Beta virt. eigenvalues --   -0.03200  -0.01311  -0.01192   0.01108   0.01963
  Beta virt. eigenvalues --    0.08396   0.09036   0.09174   0.10218   0.11435
  Beta virt. eigenvalues --    0.12156   0.13006   0.13598   0.15447   0.15925

 Mulliken charges and spin densities:
               1          2
     1  O   -0.231061  -0.233823
     2  C    0.340584  -0.375246
     3  C   -0.407818   0.341044
     4  C   -0.205325  -0.015836
     5  C   -0.286152   0.009980
     6  C   -0.053884  -0.000537
     7  H    0.170315   0.000112
     8  C    0.559451  -0.000235
     9  O   -0.509674   0.000284
    10  C   -0.629517   0.002230
    11  H    0.295032   0.000005
    12  H    0.232105  -0.012347
    13  H    0.209778  -0.232632
    14  H    0.174382   0.005007
    15  H    0.142776   0.001581
    16  H    0.159179  -0.000049
    17  H    0.168226  -0.000562
    18  H    0.195812  -0.000078
    19  H    0.216913  -0.000978
    20  H    0.211645  -0.000081
    21  O   -0.191036   0.000022
    22  O   -0.318831  -0.000011
    23  O   -0.222253   0.727503
    24  O   -0.020646   0.784648
 Sum of Mulliken charges =   0.00000   1.00000

 Dipole moment (field-independent basis, Debye):
    X=             -2.8978    Y=             -1.8683    Z=              0.3038  Tot=              3.4612
 N-N= 5.178243632940D+02 E-N=-9.396521059976D+02  KE=-4.413675907811D+01
  Exact polarizability:  96.423 -38.484 166.178  53.074-133.224 225.106
 Approx polarizability:  64.251 -15.760  65.027  25.500 -28.344  84.322
 Leave Link  601 at Thu Feb  4 18:08:36 2021, MaxMem=    33554432 cpu:         0.0
 (Enter /apps/applications/gaussian/G09.D01/2/default/g09/l716.exe)
 Dipole        =-1.14007133D+00-7.35042180D-01 1.19518768D-01
 Polarizability= 9.64228315D+01-3.84838034D+01 1.66178346D+02
                 5.30736743D+01-1.33224433D+02 2.25106069D+02
 HyperPolar    =-3.85786295D+02 1.18993633D+03-3.31885148D+03
                 7.29466474D+03-1.31838367D+03 3.61409343D+03

 ******    1 imaginary frequencies (negative Signs) ******

                      1                      2                      3
                      A                      A                      A
 Frequencies --  -3500.5779                25.8230                33.9049
 Red. masses --      1.2030                 6.3336                 8.3555
 Frc consts  --      8.6858                 0.0025                 0.0057
 IR Inten    --  92702.3743                 0.7880                 1.8493

                      4                      5                      6
                      A                      A                      A
 Frequencies --     47.2322                64.2522                77.8191
 Red. masses --      5.6189                 7.0798                 7.7114
 Frc consts  --      0.0074                 0.0172                 0.0275
 IR Inten    --      0.3418                 1.8672                 2.4212

                      7                      8                      9
                      A                      A                      A
 Frequencies --     89.3102               103.2818               114.4467
 Red. masses --      8.5714                 4.5746                 1.1598
 Frc consts  --      0.0403                 0.0288                 0.0090
 IR Inten    --      2.2171                 3.2648                75.8960

                     10                     11                     12
                      A                      A                      A
 Frequencies --    115.0524               123.8047               159.9476
 Red. masses --      3.0004                 1.3046                 5.8088
 Frc consts  --      0.0234                 0.0118                 0.0876
 IR Inten    --      7.5671                13.6605                 4.5534

                     13                     14                     15
                      A                      A                      A
 Frequencies --    201.6279               208.4373               262.0148
 Red. masses --      4.8441                 4.2996                 3.7281
 Frc consts  --      0.1160                 0.1101                 0.1508
 IR Inten    --      4.6894                 3.2368                 4.0367

                     16                     17                     18
                      A                      A                      A
 Frequencies --    271.4857               305.3269               318.0213
 Red. masses --      3.6819                 5.8842                 3.0323
 Frc consts  --      0.1599                 0.3232                 0.1807
 IR Inten    --      1.0114                 6.2364                 5.4068

                     19                     20                     21
                      A                      A                      A
 Frequencies --    403.5138               455.8273               470.4587
 Red. masses --      3.1062                 3.5176                 5.2956
 Frc consts  --      0.2980                 0.4306                 0.6906
 IR Inten    --      4.6202                15.1274                 0.9176

                     22                     23                     24
                      A                      A                      A
 Frequencies --    486.6216               504.1378               583.5470
 Red. masses --      2.7410                 4.1142                 4.1730
 Frc consts  --      0.3824                 0.6161                 0.8372
 IR Inten    --      3.6902                 8.1192                26.5689

                     25                     26                     27
                      A                      A                      A
 Frequencies --    649.5191               711.7950               840.0538
 Red. masses --      3.0408                 1.4609                 2.1665
 Frc consts  --      0.7558                 0.4361                 0.9008
 IR Inten    --      2.5699                38.3827                10.4145

                     28                     29                     30
                      A                      A                      A
 Frequencies --    871.9300               901.5844               916.7967
 Red. masses --      2.0642                 1.7082                 1.6262
 Frc consts  --      0.9246                 0.8181                 0.8053
 IR Inten    --     27.9702               107.2890               171.7757

                     31                     32                     33
                      A                      A                      A
 Frequencies --    990.4787              1007.5582              1018.1125
 Red. masses --      2.0278                 1.7665                 4.6099
 Frc consts  --      1.1721                 1.0566                 2.8154
 IR Inten    --     17.9259                37.7340                 9.0323

                     34                     35                     36
                      A                      A                      A
 Frequencies --   1030.5744              1074.4929              1101.0506
 Red. masses --      1.7369                 1.7584                 1.7128
 Frc consts  --      1.0869                 1.1962                 1.2234
 IR Inten    --     48.8834                56.4853                34.2398

                     37                     38                     39
                      A                      A                      A
 Frequencies --   1136.9032              1163.1325              1179.4458
 Red. masses --      1.5583                 1.6369                 1.4587
 Frc consts  --      1.1867                 1.3047                 1.1956
 IR Inten    --     35.3682                15.5314                17.1548

                     40                     41                     42
                      A                      A                      A
 Frequencies --   1194.2499              1196.0864              1212.0362
 Red. masses --      1.1061                 1.5390                 1.2762
 Frc consts  --      0.9295                 1.2972                 1.1046
 IR Inten    --     43.9079                33.7895                86.7618

                     43                     44                     45
                      A                      A                      A
 Frequencies --   1217.4536              1222.7922              1237.4507
 Red. masses --      1.6678                 1.3976                 1.3610
 Frc consts  --      1.4565                 1.2312                 1.2279
 IR Inten    --      4.6615                13.3489                 8.0131

                     46                     47                     48
                      A                      A                      A
 Frequencies --   1253.5932              1262.9531              1276.5762
 Red. masses --      1.1380                 1.4789                 1.8322
 Frc consts  --      1.0537                 1.3899                 1.7592
 IR Inten    --      8.0991                43.4918                80.9669

                     49                     50                     51
                      A                      A                      A
 Frequencies --   1302.0067              1312.1430              1322.5501
 Red. masses --      1.4220                 1.3782                 1.2973
 Frc consts  --      1.4203                 1.3980                 1.3369
 IR Inten    --     13.8417                25.4210               176.6181

                     52                     53                     54
                      A                      A                      A
 Frequencies --   1336.8311              1401.0035              1411.6564
 Red. masses --      3.4306                 1.1967                 4.0829
 Frc consts  --      3.6122                 1.3839                 4.7938
 IR Inten    --     33.8154                34.1362                76.4418

                     55                     56                     57
                      A                      A                      A
 Frequencies --   1789.1124              2167.4525              2621.4926
 Red. masses --     11.8933                11.4716                 1.0803
 Frc consts  --     22.4299                31.7522                 4.3743
 IR Inten    --    265.1252               533.0989                20.7476

                     58                     59                     60
                      A                      A                      A
 Frequencies --   2648.4682              2652.0528              2657.6841
 Red. masses --      1.0814                 1.0615                 1.0725
 Frc consts  --      4.4690                 4.3987                 4.4633
 IR Inten    --    173.7147               180.6022               228.5414

                     61                     62                     63
                      A                      A                      A
 Frequencies --   2661.5919              2667.5904              2686.6125
 Red. masses --      1.0803                 1.0661                 1.0892
 Frc consts  --      4.5090                 4.4698                 4.6320
 IR Inten    --     90.7050                80.1344               114.3173

                     64                     65                     66
                      A                      A                      A
 Frequencies --   2723.5941              2733.6037              2774.2276
 Red. masses --      1.0558                 1.0490                 1.0323
 Frc consts  --      4.6142                 4.6186                 4.6810
 IR Inten    --     60.7197                57.3314                46.8326

 - Thermochemistry -
 -------------------
 Temperature   298.150 Kelvin.  Pressure   1.00000 Atm.
 Atom     1 has atomic number  8 and mass  15.99491

 Molecular mass:   191.05556 amu.
 Principal axes and moments of inertia in atomic units:
                           1         2         3
     Eigenvalues --  1738.355763851.809884405.19663
           X            0.88327  -0.41270   0.22250
           Y           -0.44576  -0.59203   0.67142
           Z            0.14537   0.69223   0.70689
 This molecule is an asymmetric top.
 Rotational symmetry number  1.
 Warning -- assumption of classical behavior for rotation
           may cause significant error
 Rotational temperatures (Kelvin)      0.04983     0.02249     0.01966
 Rotational constants (GHZ):           1.03819     0.46854     0.40968
    1 imaginary frequencies ignored.
 Zero-point vibrational energy     418466.8 (Joules/Mol)
                                  100.01597 (Kcal/Mol)
 Warning -- explicit consideration of  23 degrees of freedom as
           vibrations may cause significant error
 Vibrational temperatures:     37.15    48.78    67.96    92.44   111.96
          (Kelvin)            128.50   148.60   164.66   165.53   178.13
                              230.13   290.10   299.89   376.98   390.61
                              439.30   457.56   580.57   655.83   676.88
                              700.14   725.34   839.59   934.51  1024.11
                             1208.65  1254.51  1297.18  1319.06  1425.08
                             1449.65  1464.84  1482.76  1545.95  1584.16
                             1635.75  1673.49  1696.96  1718.26  1720.90
                             1743.85  1751.64  1759.32  1780.41  1803.64
                             1817.11  1836.71  1873.29  1887.88  1902.85
                             1923.40  2015.73  2031.06  2574.13  3118.48
                             3771.74  3810.55  3815.71  3823.81  3829.43
                             3838.06  3865.43  3918.64  3933.04  3991.49

 Zero-point correction=                           0.159386 (Hartree/Particle)
 Thermal correction to Energy=                    0.175811
 Thermal correction to Enthalpy=                  0.176756
 Thermal correction to Gibbs Free Energy=         0.112376
 Sum of electronic and zero-point Energies=              0.047004
 Sum of electronic and thermal Energies=                 0.063430
 Sum of electronic and thermal Enthalpies=               0.064374
 Sum of electronic and thermal Free Energies=           -0.000006

                     E (Thermal)             CV                S
                      KCal/Mol        Cal/Mol-Kelvin    Cal/Mol-Kelvin
 Total                  110.323             54.653            135.499
 Electronic               0.000              0.000              1.377
 Translational            0.889              2.981             41.648
 Rotational               0.889              2.981             31.756
 Vibrational            108.546             48.691             60.718
 Vibration     1          0.593              1.985              6.127
 Vibration     2          0.594              1.983              5.587
 Vibration     3          0.595              1.979              4.930
 Vibration     4          0.597              1.971              4.322
 Vibration     5          0.599              1.964              3.945
 Vibration     6          0.602              1.957              3.675
 Vibration     7          0.605              1.947              3.391
 Vibration     8          0.607              1.937              3.192
 Vibration     9          0.608              1.937              3.182
 Vibration    10          0.610              1.929              3.040
 Vibration    11          0.622              1.891              2.550
 Vibration    12          0.639              1.838              2.118
 Vibration    13          0.642              1.828              2.057
 Vibration    14          0.669              1.742              1.648
 Vibration    15          0.675              1.726              1.587
 Vibration    16          0.696              1.664              1.388
 Vibration    17          0.704              1.639              1.320
 Vibration    18          0.769              1.463              0.950
 Vibration    19          0.814              1.348              0.778
 Vibration    20          0.827              1.316              0.736
 Vibration    21          0.843              1.280              0.692
 Vibration    22          0.859              1.241              0.648
 Vibration    23          0.940              1.067              0.479

 Normal termination of Gaussian 09 at Thu Feb  4 18:08:36 2021.
