 Gaussian 09, Revision D.01,
 Gaussian 09:  ES64L-G09RevD.01 24-Apr-2013

 ----------------------------------------------------------------------
 #P b3lyp/3-21G scf=qc opt(calcall, ts, noeigentest, cartesian,maxcycle
 =100)
 ----------------------------------------------------------------------

 ------------------------------
 Gaussian input prepared by ASE
 ------------------------------
 Symbolic Z-matrix:
 Charge =  0 Multiplicity = 2

 SCF Done:  E(UB3LYP) =  -191.317505219     a.u. after    8 cycles
 SCF Done:  E(UB3LYP) =  -191.321666720     a.u. after    8 cycles
 SCF Done:  E(UB3LYP) =  -191.324594185     a.u. after    8 cycles
 SCF Done:  E(UB3LYP) =  -191.326043179     a.u. after    8 cycles
 SCF Done:  E(UB3LYP) =  -191.326851846     a.u. after   10 cycles
 SCF Done:  E(UB3LYP) =  -191.327607443     a.u. after    8 cycles
 SCF Done:  E(UB3LYP) =  -191.327758538     a.u. after    7 cycles
 SCF Done:  E(UB3LYP) =  -191.327798803     a.u. after    5 cycles
 SCF Done:  E(UB3LYP) =  -191.327807646     a.u. after    4 cycles
 SCF Done:  E(UB3LYP) =  -191.327808305     a.u. after    3 cycles
 SCF Done:  E(UB3LYP) =  -191.327808291     a.u. after    2 cycles
 Optimization completed.
    -- Stationary point found.

                         Standard orientation:
 ---------------------------------------------------------------------
 Center     Atomic      Atomic             Coordinates (Angstroms)
 Number     Number       Type             X           Y           Z
 ---------------------------------------------------------------------
      1          6           0        1.843790   -0.016828    0.047902
      2          6           0        0.394745   -0.317073   -0.142676
      3          1           0        2.092669    1.052703    0.003433
      4          1           0        2.448998   -0.559761   -0.687610
      5          1           0        2.157004   -0.389389    1.036335
      6          6           0       -0.677240    0.548562   -0.041345
      7          1           0       -0.793291    1.624310   -0.035902
      8          8           0       -1.786768   -0.233676    0.070743
      9          1           0       -0.979009   -1.146422   -0.065485
 ---------------------------------------------------------------------

 The electronic state is 2-A.
 Alpha  occ. eigenvalues --  -19.08763 -10.20175 -10.13968 -10.13135  -1.06826
 Alpha  occ. eigenvalues --   -0.78315  -0.68202  -0.58730  -0.47379  -0.44513
 Alpha  occ. eigenvalues --   -0.43416  -0.41940  -0.40259  -0.35304  -0.23533
 Alpha  occ. eigenvalues --   -0.22754
 Alpha virt. eigenvalues --    0.00501   0.08911   0.13783   0.15273   0.18032
 Alpha virt. eigenvalues --    0.18590   0.22953   0.28163   0.42729   0.63608
 Alpha virt. eigenvalues --    0.68463   0.72607   0.76228   0.77935   0.79679

  Beta  occ. eigenvalues --  -19.07656 -10.20043 -10.13305 -10.13148  -1.04507
  Beta  occ. eigenvalues --   -0.76931  -0.67058  -0.57971  -0.46306  -0.43790
  Beta  occ. eigenvalues --   -0.42190  -0.41477  -0.35981  -0.34070  -0.21463
  Beta virt. eigenvalues --   -0.12000   0.04040   0.09487   0.13966   0.15563
  Beta virt. eigenvalues --    0.18463   0.18903   0.23929   0.29076   0.43524
  Beta virt. eigenvalues --    0.63893   0.70068   0.72990   0.77085   0.78141

 Mulliken charges and spin densities:
               1          2
     1  C   -0.678842  -0.042913
     2  C   -0.156204   0.509520
     3  H    0.196082   0.010755
     4  H    0.226149   0.014843
     5  H    0.229513   0.030444
     6  C    0.087389   0.075885
     7  H    0.218878  -0.005032
     8  O   -0.431136   0.430957
     9  H    0.308172  -0.024459
 Sum of Mulliken charges =   0.00000   1.00000

 Dipole moment (field-independent basis, Debye):
    X=              1.6526    Y=              1.2143    Z=              0.3046  Tot=              2.0733
 Quadrupole moment (field-independent basis, Debye-Ang):
   XX=            -26.3944   YY=            -23.1408   ZZ=            -25.1221
   XY=             -0.4803   XZ=              0.6852   YZ=             -0.5260

  Exact polarizability:  51.535  -1.507  34.176  -0.338   0.000  19.339
 Approx polarizability:  89.857  -3.063  49.570  -4.349   0.923  24.511

 ******    1 imaginary frequencies (negative Signs) ******

                      1                      2                      3
                      A                      A                      A
 Frequencies --  -2030.6647               117.1620               155.9405
 Red. masses --      1.1016                 1.2109                 3.6533
 Frc consts  --      2.6763                 0.0098                 0.0523
 IR Inten    --    273.8419                 5.1425                 3.9643

                      4                      5                      6
                      A                      A                      A
 Frequencies --    304.1241               655.0807               874.8259
 Red. masses --      3.1569                 5.3282                 1.4909
 Frc consts  --      0.1720                 1.3472                 0.6723
 IR Inten    --      4.7556                 1.8142                 1.1981

                      7                      8                      9
                      A                      A                      A
 Frequencies --    921.1569               971.6421              1054.8046
 Red. masses --      1.3429                 3.2079                 1.9058
 Frc consts  --      0.6714                 1.7844                 1.2493
 IR Inten    --     29.7452                70.3620                19.7176

                     10                     11                     12
                      A                      A                      A
 Frequencies --   1099.6277              1154.7181              1251.5880
 Red. masses --      1.6643                 1.2452                 2.0627
 Frc consts  --      1.1857                 0.9783                 1.9038
 IR Inten    --     18.3784                43.5931                17.1273

                     13                     14                     15
                      A                      A                      A
 Frequencies --   1416.7643              1451.6932              1530.9879
 Red. masses --      2.9016                 1.2790                 1.0652
 Frc consts  --      3.4315                 1.5881                 1.4710
 IR Inten    --     16.0578                 6.8368                10.5403

                     16                     17                     18
                      A                      A                      A
 Frequencies --   1548.4854              2035.7597              3007.6389
 Red. masses --      1.0674                 1.0541                 1.0369
 Frc consts  --      1.5079                 2.5739                 5.5262
 IR Inten    --     22.4136                13.5443                10.4299

                     19                     20                     21
                      A                      A                      A
 Frequencies --   3051.7775              3089.9151              3224.2203
 Red. masses --      1.0939                 1.0953                 1.0963
 Frc consts  --      6.0026                 6.1612                 6.7150
 IR Inten    --     21.5311                13.8199                 5.2457

 - Thermochemistry -
 -------------------
 Temperature   298.150 Kelvin.  Pressure   1.00000 Atm.
 Atom     1 has atomic number  6 and mass  12.00000

 Molecular mass:    57.03404 amu.
 Principal axes and moments of inertia in atomic units:
                           1         2         3
     Eigenvalues --    47.09970 419.59583 452.89763
           X            0.99998  -0.00116   0.00587
           Y            0.00116   1.00000   0.00037
           Z           -0.00587  -0.00036   0.99998
 This molecule is an asymmetric top.
 Rotational symmetry number  1.
 Rotational temperatures (Kelvin)      1.83895     0.20642     0.19124
 Rotational constants (GHZ):          38.31747     4.30114     3.98488
    1 imaginary frequencies ignored.
 Zero-point vibrational energy     172967.5 (Joules/Mol)
                                   41.34023 (Kcal/Mol)
 Warning -- explicit consideration of   3 degrees of freedom as
           vibrations may cause significant error
 Vibrational temperatures:    168.57   224.36   437.57   942.51  1258.68
          (Kelvin)           1325.34  1397.97  1517.63  1582.12  1661.38
                             1800.75  2038.41  2088.66  2202.75  2227.92
                             2929.00  4327.32  4390.82  4445.69  4638.93

 Zero-point correction=                           0.065880 (Hartree/Particle)
 Thermal correction to Energy=                    0.070855
 Thermal correction to Enthalpy=                  0.071800
 Thermal correction to Gibbs Free Energy=         0.037926
 Sum of electronic and zero-point Energies=           -191.261928
 Sum of electronic and thermal Energies=              -191.256953
 Sum of electronic and thermal Enthalpies=            -191.256009
 Sum of electronic and thermal Free Energies=         -191.289882

                     E (Thermal)             CV                S
                      KCal/Mol        Cal/Mol-Kelvin    Cal/Mol-Kelvin
 Total                   44.462             15.134             71.293
 Electronic               0.000              0.000              1.377
 Translational            0.889              2.981             38.044
 Rotational               0.889              2.981             23.708
 Vibrational             42.685              9.172              8.164
 Vibration     1          0.608              1.935              3.147
 Vibration     2          0.620              1.896              2.598
 Vibration     3          0.695              1.666              1.394

 Normal termination of Gaussian 09 at Wed Jan  6 21:25:12 2021.
