 Gaussian 09, Revision D.01,
 Gaussian 09:  ES64L-G09RevD.01 24-Apr-2013

 ----------------------------------------------------------------------
 #P pm6 scf=qc opt(calcall, ts, noeigentest, cartesian,maxcycle=100) No
 Symm
 ----------------------------------------------------------------------

 ------------------------------
 Gaussian input prepared by ASE
 ------------------------------
 Symbolic Z-matrix:
 Charge =  0 Multiplicity = 1

 SCF Done:  E(RPM6) = -0.198790834997     a.u. after   10 cycles

 Alpha  occ. eigenvalues --   -1.35045  -1.24322  -1.17902  -1.17096  -1.07239
 Alpha  occ. eigenvalues --   -0.99950  -0.95793  -0.94035  -0.87910  -0.83105
 Alpha  occ. eigenvalues --   -0.77757  -0.70431  -0.69248  -0.67901  -0.67638
 Alpha  occ. eigenvalues --   -0.62613  -0.60950  -0.59191  -0.58510  -0.56089
 Alpha  occ. eigenvalues --   -0.55579  -0.54778  -0.52558  -0.51180  -0.50414
 Alpha  occ. eigenvalues --   -0.49263  -0.48946  -0.47819  -0.47116  -0.45466
 Alpha  occ. eigenvalues --   -0.42782  -0.35949  -0.35378  -0.34750
 Alpha virt. eigenvalues --   -0.07666  -0.02120   0.00894   0.01047   0.01886
 Alpha virt. eigenvalues --    0.03585   0.08190   0.09773   0.11246   0.11658
 Alpha virt. eigenvalues --    0.13425   0.14023   0.14987   0.15802   0.16342

 Mulliken charges:
               1
     1  O   -1.045491
     2  O    0.089700
     3  C    0.522108
     4  O   -0.254218
     5  C    0.008824
     6  C   -0.284175
     7  C   -0.460926
     8  C    0.428011
     9  O   -0.482052
    10  C    0.479766
    11  O   -0.447268
    12  C   -0.668632
    13  H    0.295860
    14  H    0.153118
    15  H    0.191089
    16  H    0.190385
    17  H    0.164629
    18  H    0.186723
    19  H    0.268778
    20  H    0.196892
    21  H    0.268489
    22  H    0.198391
 Sum of Mulliken charges =   0.00000

 Dipole moment (field-independent basis, Debye):
    X=              6.1097    Y=             -1.5622    Z=             -1.3942  Tot=              6.4585
 N-N= 4.559441215562D+02 E-N=-8.247061779918D+02  KE=-4.028554417878D+01
  Exact polarizability:  73.926 -24.031  89.719   4.289   1.916  74.740
 Approx polarizability:  50.282 -18.014  76.309   5.960   1.171  57.758
 Leave Link  601 at Tue Feb 23 12:28:07 2021, MaxMem=    33554432 cpu:         0.0
 (Enter /cm/shared/apps/Gaussian09/g09/l701.exe)
 Compute integral second derivatives.
 ... and contract with generalized density number  0.
 Leave Link  701 at Tue Feb 23 12:28:07 2021, MaxMem=    33554432 cpu:         0.1
 (Enter /cm/shared/apps/Gaussian09/g09/l702.exe)
 L702 exits ... SP integral derivatives will be done elsewhere.

 Optimization completed.
    -- Stationary point found.

                          Input orientation:
 ---------------------------------------------------------------------
 Center     Atomic      Atomic             Coordinates (Angstroms)
 Number     Number       Type             X           Y           Z
 ---------------------------------------------------------------------
      1          8           0        0.600574    1.294172   -1.222654
      2          8           0        0.506856   -0.264806   -2.353749
      3          6           0        1.144427   -1.002589   -1.752555
      4          8           0        1.928128   -1.585147   -0.941962
      5          6           0        2.298906   -0.730330    0.290146
      6          6           0        1.250674   -0.955276    1.353096
      7          6           0        0.084628    0.023621    1.245523
      8          6           0       -1.153239   -0.581180    0.651474
      9          8           0       -1.251111   -1.723529    0.265628
     10          6           0       -2.312585    0.435938    0.479748
     11          8           0       -3.054516    0.681769    1.397300
     12          6           0       -2.322320    1.047087   -0.868578
     13          1           0        0.709525    2.078428   -1.687383
     14          1           0        3.279269   -1.193256    0.491672
     15          1           0        2.370545    0.324197   -0.059709
     16          1           0        0.867426   -2.005799    1.298242
     17          1           0        1.725176   -0.877919    2.355364
     18          1           0       -0.148134    0.488086    2.223492
     19          1           0        0.368101    0.909539    0.567439
     20          1           0       -2.941638    1.950396   -0.916784
     21          1           0       -1.267502    1.334803   -1.179314
     22          1           0       -2.683191    0.351794   -1.636435
 ---------------------------------------------------------------------

 ******    1 imaginary frequencies (negative Signs) ******

                      1                      2                      3
                      A                      A                      A
 Frequencies --   -374.5816                44.3144                55.0188
 Red. masses --      4.4999                 5.6209                 6.1745
 Frc consts  --      0.3720                 0.0065                 0.0110
 IR Inten    --    280.0409                 2.9238                 6.2758

                      4                      5                      6
                      A                      A                      A
 Frequencies --     69.0928                93.1007               115.9205
 Red. masses --      7.4672                 2.8576                 7.0715
 Frc consts  --      0.0210                 0.0146                 0.0560
 IR Inten    --      2.4342                 5.8505                 5.7968

                      7                      8                      9
                      A                      A                      A
 Frequencies --    138.8183               157.4510               197.5336
 Red. masses --      5.2794                 6.4413                 3.1118
 Frc consts  --      0.0599                 0.0941                 0.0715
 IR Inten    --     49.3725                12.3747                30.8877

                     10                     11                     12
                      A                      A                      A
 Frequencies --    220.5502               250.5872               282.3568
 Red. masses --      1.3600                 2.8863                 5.2472
 Frc consts  --      0.0390                 0.1068                 0.2465
 IR Inten    --     35.5468                22.7487                 9.0712

                     13                     14                     15
                      A                      A                      A
 Frequencies --    301.1629               351.9160               364.0611
 Red. masses --      2.8660                 4.0852                 5.6289
 Frc consts  --      0.1532                 0.2981                 0.4396
 IR Inten    --     29.9385                75.7065                15.3835

                     16                     17                     18
                      A                      A                      A
 Frequencies --    394.0859               427.6366               502.6471
 Red. masses --      1.1106                 2.0217                 9.1645
 Frc consts  --      0.1016                 0.2178                 1.3642
 IR Inten    --    127.5565                14.7294                36.2819

                     19                     20                     21
                      A                      A                      A
 Frequencies --    544.2677               588.9364               594.3687
 Red. masses --      3.5464                 4.9807                 3.3007
 Frc consts  --      0.6190                 1.0178                 0.6870
 IR Inten    --     24.7649                24.9192                 6.3516

                     22                     23                     24
                      A                      A                      A
 Frequencies --    617.9466               686.3484               726.0416
 Red. masses --      3.3199                 1.3617                 3.8338
 Frc consts  --      0.7469                 0.3779                 1.1907
 IR Inten    --     14.7095               108.6997                20.3313

                     25                     26                     27
                      A                      A                      A
 Frequencies --    821.5195               891.9949               931.8455
 Red. masses --      3.2729                 1.9703                 2.2345
 Frc consts  --      1.3014                 0.9236                 1.1432
 IR Inten    --     56.8057                66.5018               121.9265

                     28                     29                     30
                      A                      A                      A
 Frequencies --    960.8204              1010.0344              1031.7208
 Red. masses --      2.2011                 1.6800                 1.6986
 Frc consts  --      1.1972                 1.0098                 1.0653
 IR Inten    --     72.6083                44.0017                85.1323

                     31                     32                     33
                      A                      A                      A
 Frequencies --   1045.9374              1083.1126              1087.9284
 Red. masses --      1.5477                 2.0121                 1.7475
 Frc consts  --      0.9976                 1.3908                 1.2186
 IR Inten    --     61.6464                 3.8319                27.8955

                     34                     35                     36
                      A                      A                      A
 Frequencies --   1140.1749              1162.9053              1186.6157
 Red. masses --      1.1970                 1.8610                 1.1182
 Frc consts  --      0.9168                 1.4828                 0.9276
 IR Inten    --      5.2885                35.3738                77.7451

                     37                     38                     39
                      A                      A                      A
 Frequencies --   1187.8853              1197.0912              1208.2258
 Red. masses --      1.5495                 1.6717                 1.1901
 Frc consts  --      1.2882                 1.4115                 1.0236
 IR Inten    --     26.7531                 5.0252                34.3079

                     40                     41                     42
                      A                      A                      A
 Frequencies --   1217.5147              1232.5667              1239.3722
 Red. masses --      1.3301                 1.3932                 1.4870
 Frc consts  --      1.1616                 1.2470                 1.3457
 IR Inten    --    134.8422                40.7129               148.8717

                     43                     44                     45
                      A                      A                      A
 Frequencies --   1255.8055              1279.4308              1301.9548
 Red. masses --      1.2273                 1.4137                 1.6429
 Frc consts  --      1.1404                 1.3634                 1.6408
 IR Inten    --     32.6456                 3.7812                24.6369

                     46                     47                     48
                      A                      A                      A
 Frequencies --   1316.0637              1328.0353              1794.8698
 Red. masses --      1.3953                 1.7594                11.7488
 Frc consts  --      1.4239                 1.8282                22.3003
 IR Inten    --    206.4867                63.2061               222.3487

                     49                     50                     51
                      A                      A                      A
 Frequencies --   1819.8027              2137.7907              2407.8708
 Red. masses --     12.1622                11.5712                 1.0813
 Frc consts  --     23.7308                31.1573                 3.6938
 IR Inten    --    427.3386               365.0352                64.5838

                     52                     53                     54
                      A                      A                      A
 Frequencies --   2437.9321              2461.1173              2610.6712
 Red. masses --      1.0745                 1.0805                 1.0814
 Frc consts  --      3.7626                 3.8561                 4.3427
 IR Inten    --    732.2154               637.5701                59.3940

                     55                     56                     57
                      A                      A                      A
 Frequencies --   2638.1905              2694.1731              2695.5763
 Red. masses --      1.0820                 1.0575                 1.0883
 Frc consts  --      4.4368                 4.5225                 4.6592
 IR Inten    --     83.2572                88.2278               101.3837

                     58                     59                     60
                      A                      A                      A
 Frequencies --   2712.0490              2722.6465              2770.3493
 Red. masses --      1.0637                 1.0511                 1.0406
 Frc consts  --      4.6095                 4.5907                 4.7053
 IR Inten    --     77.5705               118.6040                85.9192

 - Thermochemistry -
 -------------------
 Temperature   298.150 Kelvin.  Pressure   1.00000 Atm.
 Atom     1 has atomic number  8 and mass  15.99491

 Molecular mass:   174.05282 amu.
 Principal axes and moments of inertia in atomic units:
                           1         2         3
     Eigenvalues --  1304.476572552.047363066.16666
           X            0.90634   0.16382   0.38951
           Y           -0.28929  -0.43134   0.85455
           Z           -0.30800   0.88719   0.34355
 This molecule is an asymmetric top.
 Rotational symmetry number  1.
 Warning -- assumption of classical behavior for rotation
           may cause significant error
 Rotational temperatures (Kelvin)      0.06640     0.03394     0.02825
 Rotational constants (GHZ):           1.38350     0.70717     0.58860
    1 imaginary frequencies ignored.
 Zero-point vibrational energy     393247.0 (Joules/Mol)
                                   93.98828 (Kcal/Mol)
 Warning -- explicit consideration of  21 degrees of freedom as
           vibrations may cause significant error
 Vibrational temperatures:     63.76    79.16    99.41   133.95   166.78
          (Kelvin)            199.73   226.54   284.21   317.32   360.54
                              406.25   433.31   506.33   523.80   567.00
                              615.27   723.20   783.08   847.35   855.16
                              889.09   987.50  1044.61  1181.98  1283.38
                             1340.72  1382.40  1453.21  1484.41  1504.87
                             1558.36  1565.28  1640.46  1673.16  1707.27
                             1709.10  1722.35  1738.37  1751.73  1773.39
                             1783.18  1806.82  1840.81  1873.22  1893.52
                             1910.74  2582.41  2618.29  3075.80  3464.38
                             3507.64  3540.99  3756.17  3795.76  3876.31
                             3878.33  3902.03  3917.28  3985.91

 Zero-point correction=                           0.149780 (Hartree/Particle)
 Thermal correction to Energy=                    0.163270
 Thermal correction to Enthalpy=                  0.164215
 Thermal correction to Gibbs Free Energy=         0.109285
 Sum of electronic and zero-point Energies=             -0.049011
 Sum of electronic and thermal Energies=                -0.035520
 Sum of electronic and thermal Enthalpies=              -0.034576
 Sum of electronic and thermal Free Energies=           -0.089506

                     E (Thermal)             CV                S
                      KCal/Mol        Cal/Mol-Kelvin    Cal/Mol-Kelvin
 Total                  102.454             47.835            115.609
 Electronic               0.000              0.000              0.000
 Translational            0.889              2.981             41.370
 Rotational               0.889              2.981             30.702
 Vibrational            100.676             41.873             43.537
 Vibration     1          0.595              1.980              5.056
 Vibration     2          0.596              1.976              4.628
 Vibration     3          0.598              1.969              4.179
 Vibration     4          0.602              1.954              3.594
 Vibration     5          0.608              1.936              3.167
 Vibration     6          0.614              1.915              2.820
 Vibration     7          0.621              1.894              2.580
 Vibration     8          0.637              1.843              2.156
 Vibration     9          0.647              1.810              1.955
 Vibration    10          0.663              1.762              1.726
 Vibration    11          0.681              1.706              1.519
 Vibration    12          0.693              1.671              1.410
 Vibration    13          0.728              1.571              1.158
 Vibration    14          0.738              1.546              1.105
 Vibration    15          0.761              1.483              0.985
 Vibration    16          0.789              1.410              0.866
 Vibration    17          0.858              1.244              0.652
 Vibration    18          0.899              1.152              0.556
 Vibration    19          0.946              1.055              0.469
 Vibration    20          0.952              1.044              0.459
 Vibration    21          0.978              0.994              0.420

 Normal termination of Gaussian 09 at Tue Feb 23 12:28:07 2021.
