 Gaussian 09, Revision D.01,
 Gaussian 09:  ES64L-G09RevD.01 24-Apr-2013

 ----------------------------------------------------------------------
 #P upm6 scf=qc opt(calcall, ts, noeigentest, cartesian,maxcycle=100) N
 oSymm, guess=mix
 ----------------------------------------------------------------------

 ------------------------------
 Gaussian input prepared by ASE
 ------------------------------
 Symbolic Z-matrix:
 Charge =  0 Multiplicity = 2

 SCF Done:  E(UPM6) = -0.115184735963     a.u. after   11 cycles

 Alpha  occ. eigenvalues --   -1.22299  -1.18017  -1.17538  -1.12497  -1.09573
 Alpha  occ. eigenvalues --   -1.08294  -1.05623  -0.99282  -0.97783  -0.90457
 Alpha  occ. eigenvalues --   -0.81355  -0.77247  -0.74200  -0.72640  -0.70383
 Alpha  occ. eigenvalues --   -0.67252  -0.64338  -0.63507  -0.60698  -0.60412
 Alpha  occ. eigenvalues --   -0.58967  -0.57884  -0.56900  -0.55414  -0.54373
 Alpha  occ. eigenvalues --   -0.53682  -0.52981  -0.51624  -0.49316  -0.49145
 Alpha  occ. eigenvalues --   -0.48268  -0.47370  -0.45367  -0.41942  -0.41469
 Alpha  occ. eigenvalues --   -0.40565  -0.39607  -0.36757
 Alpha virt. eigenvalues --   -0.03175  -0.01248  -0.00558   0.01143   0.04573
 Alpha virt. eigenvalues --    0.08185   0.08350   0.08684   0.09413   0.10820
 Alpha virt. eigenvalues --    0.11069   0.12194   0.13231   0.13424   0.15644

  Beta  occ. eigenvalues --   -1.21906  -1.18007  -1.17098  -1.12488  -1.09066
  Beta  occ. eigenvalues --   -1.06153  -1.00549  -0.98921  -0.96458  -0.90308
  Beta  occ. eigenvalues --   -0.80983  -0.76506  -0.73849  -0.71451  -0.70156
  Beta  occ. eigenvalues --   -0.64994  -0.64016  -0.63101  -0.60619  -0.59856
  Beta  occ. eigenvalues --   -0.58758  -0.57792  -0.55498  -0.54955  -0.53744
  Beta  occ. eigenvalues --   -0.53151  -0.51023  -0.50213  -0.49150  -0.48485
  Beta  occ. eigenvalues --   -0.47853  -0.47259  -0.43700  -0.41911  -0.40576
  Beta  occ. eigenvalues --   -0.37276  -0.36764
  Beta virt. eigenvalues --   -0.09772  -0.01566  -0.01014  -0.00557   0.01146
  Beta virt. eigenvalues --    0.04969   0.08287   0.08726   0.09050   0.10070
  Beta virt. eigenvalues --    0.10972   0.11653   0.12294   0.13264   0.14048

 Mulliken charges and spin densities:
               1          2
     1  O   -0.444102   0.040267
     2  C    0.560651  -0.004146
     3  C   -0.317709   0.534226
     4  C   -0.240942  -0.023994
     5  C   -0.280864   0.019053
     6  C   -0.079625  -0.000893
     7  H    0.173617   0.000018
     8  C    0.544064   0.000185
     9  O   -0.489039   0.000100
    10  C   -0.618846   0.000027
    11  H    0.297751   0.000011
    12  H    0.197132  -0.015167
    13  H    0.253947  -0.118287
    14  H    0.158159   0.011541
    15  H    0.167722   0.001827
    16  H    0.174153  -0.000645
    17  H    0.162975  -0.000169
    18  H    0.193336   0.000006
    19  H    0.206309  -0.000001
    20  H    0.209646  -0.000002
    21  O   -0.178338   0.000070
    22  O   -0.299524  -0.000070
    23  O   -0.206543   0.659534
    24  O   -0.143928  -0.103490
 Sum of Mulliken charges =   0.00000   1.00000

 Dipole moment (field-independent basis, Debye):
    X=             -0.2082    Y=             -1.0325    Z=              2.2878  Tot=              2.5186
 N-N= 5.216479163218D+02 E-N=-9.470281726044D+02  KE=-4.410181500613D+01
  Exact polarizability:  83.898 -25.983  71.005  -1.499  14.749  94.073
 Approx polarizability:  59.140 -13.638  46.749   3.094   9.294  77.503
 Leave Link  601 at Sat Feb  6 22:32:40 2021, MaxMem=    33554432 cpu:         0.0
 (Enter /apps/applications/gaussian/G09.D01/2/default/g09/l701.exe)
 Compute integral second derivatives.
 ... and contract with generalized density number  0.
 Leave Link  701 at Sat Feb  6 22:32:41 2021, MaxMem=    33554432 cpu:         0.1
 (Enter /apps/applications/gaussian/G09.D01/2/default/g09/l702.exe)
 L702 exits ... SP integral derivatives will be done elsewhere.

 Optimization completed.
    -- Stationary point found.

                          Input orientation:
 ---------------------------------------------------------------------
 Center     Atomic      Atomic             Coordinates (Angstroms)
 Number     Number       Type             X           Y           Z
 ---------------------------------------------------------------------
      1          8           0       -1.366900    2.005814   -0.840334
      2          6           0       -1.421674    2.160623    0.349037
      3          6           0       -0.659899    1.542687    1.484586
      4          6           0       -0.774569    0.050377    1.634439
      5          6           0        0.433569   -0.699850    1.060291
      6          6           0        0.584615   -0.529161   -0.453241
      7          1           0        0.549278    0.538934   -0.774895
      8          6           0        1.902659   -1.153083   -0.957255
      9          8           0        2.932499   -0.926229   -0.362859
     10          6           0        1.811362   -1.990762   -2.184107
     11          1           0       -1.458918    0.074536   -2.054836
     12          1           0        0.348889    1.958832    1.629744
     13          1           0       -1.293751    2.132201    2.493763
     14          1           0       -0.881131   -0.211492    2.710904
     15          1           0       -1.703232   -0.327868    1.148486
     16          1           0        1.378954   -0.375786    1.550284
     17          1           0        0.330738   -1.781131    1.298004
     18          1           0        2.796495   -2.334030   -2.526249
     19          1           0        1.174234   -2.874827   -2.015272
     20          1           0        1.323638   -1.444820   -3.010624
     21          8           0       -0.567506   -1.224986   -1.007517
     22          8           0       -0.823927   -0.681416   -2.285010
     23          8           0       -2.292902    2.978618    2.250683
     24          8           0       -2.322521    3.112818    0.861977
 ---------------------------------------------------------------------

 ******    1 imaginary frequencies (negative Signs) ******

                      1                      2                      3
                      A                      A                      A
 Frequencies --  -1913.8345                29.5332                32.2234
 Red. masses --      1.1237                 6.0251                 4.1335
 Frc consts  --      2.4249                 0.0031                 0.0025
 IR Inten    --    950.3455                 1.7523                 7.1111

                      4                      5                      6
                      A                      A                      A
 Frequencies --     36.1479                70.3177                77.9259
 Red. masses --      7.7950                 1.1892                 7.4536
 Frc consts  --      0.0060                 0.0035                 0.0267
 IR Inten    --      3.3129                 0.9422                 4.4972

                      7                      8                      9
                      A                      A                      A
 Frequencies --     82.0573               112.3691               122.4065
 Red. masses --      4.3917                 6.3554                 3.9731
 Frc consts  --      0.0174                 0.0473                 0.0351
 IR Inten    --      1.8267                 2.9987                 3.1336

                     10                     11                     12
                      A                      A                      A
 Frequencies --    150.7696               194.8969               245.2669
 Red. masses --      4.6091                 6.1762                 3.5409
 Frc consts  --      0.0617                 0.1382                 0.1255
 IR Inten    --      1.1890                 8.7242                 8.3902

                     13                     14                     15
                      A                      A                      A
 Frequencies --    264.5276               269.0263               365.5310
 Red. masses --      3.3839                 3.0541                 1.3948
 Frc consts  --      0.1395                 0.1302                 0.1098
 IR Inten    --      7.7149                 1.5355                61.2100

                     16                     17                     18
                      A                      A                      A
 Frequencies --    377.6408               421.5861               446.5310
 Red. masses --      2.9037                 3.2353                 5.8730
 Frc consts  --      0.2440                 0.3388                 0.6899
 IR Inten    --     28.3564                 9.9220                19.4675

                     19                     20                     21
                      A                      A                      A
 Frequencies --    495.7748               511.6237               523.6768
 Red. masses --      3.1757                 3.0784                 3.5291
 Frc consts  --      0.4599                 0.4748                 0.5702
 IR Inten    --     15.1643                24.2891                 5.2800

                     22                     23                     24
                      A                      A                      A
 Frequencies --    593.9835               606.0447               645.3872
 Red. masses --      4.7491                 3.1212                 6.0623
 Frc consts  --      0.9872                 0.6754                 1.4878
 IR Inten    --     16.2195                 2.8618                 3.5891

                     25                     26                     27
                      A                      A                      A
 Frequencies --    775.4491               827.5889               870.9974
 Red. masses --      1.7530                 1.7438                 2.3051
 Frc consts  --      0.6211                 0.7037                 1.0303
 IR Inten    --     28.0279                46.2975                14.2533

                     28                     29                     30
                      A                      A                      A
 Frequencies --    908.7859               931.7663               973.5578
 Red. masses --      2.1583                 3.3113                 3.1932
 Frc consts  --      1.0502                 1.6938                 1.7832
 IR Inten    --     28.0992                11.8733                23.9789

                     31                     32                     33
                      A                      A                      A
 Frequencies --    979.6254              1003.9712              1022.1911
 Red. masses --      9.2313                 1.5684                 1.9527
 Frc consts  --      5.2195                 0.9314                 1.2021
 IR Inten    --      9.6036                38.2485                37.5615

                     34                     35                     36
                      A                      A                      A
 Frequencies --   1040.6821              1048.5061              1090.6476
 Red. masses --      1.6048                 1.8372                 1.7882
 Frc consts  --      1.0240                 1.1900                 1.2533
 IR Inten    --      6.2262                 7.5193                40.6171

                     37                     38                     39
                      A                      A                      A
 Frequencies --   1142.2739              1158.4120              1168.6382
 Red. masses --      2.7570                 1.8587                 2.1340
 Frc consts  --      2.1194                 1.4695                 1.7171
 IR Inten    --    103.0635                 6.2318               105.5635

                     40                     41                     42
                      A                      A                      A
 Frequencies --   1177.3628              1190.9000              1197.9028
 Red. masses --      1.5637                 1.1688                 1.2581
 Frc consts  --      1.2771                 0.9767                 1.0637
 IR Inten    --      1.0321                70.0984                30.5036

                     43                     44                     45
                      A                      A                      A
 Frequencies --   1204.2573              1219.2520              1228.5114
 Red. masses --      1.5450                 1.0690                 1.7924
 Frc consts  --      1.3202                 0.9363                 1.5938
 IR Inten    --     14.1007                68.0248                10.7520

                     46                     47                     48
                      A                      A                      A
 Frequencies --   1249.1346              1255.3611              1259.9781
 Red. masses --      1.2156                 1.4387                 2.3341
 Frc consts  --      1.1175                 1.3359                 2.1832
 IR Inten    --     32.0672               117.3866               131.0732

                     49                     50                     51
                      A                      A                      A
 Frequencies --   1275.6428              1294.8266              1315.7671
 Red. masses --      1.4319                 2.1242                 1.2826
 Frc consts  --      1.3729                 2.0983                 1.3083
 IR Inten    --     36.2803                 0.4785               191.2672

                     52                     53                     54
                      A                      A                      A
 Frequencies --   1326.6165              1400.9490              1796.9160
 Red. masses --      1.6353                 1.1166                 2.7493
 Frc consts  --      1.6956                 1.2912                 5.2302
 IR Inten    --      4.5332                45.8919               244.3668

                     55                     56                     57
                      A                      A                      A
 Frequencies --   1802.7606              1919.6161              2615.9200
 Red. masses --      5.2475                 1.8050                 1.0611
 Frc consts  --     10.0481                 3.9189                 4.2783
 IR Inten    --    455.2207                83.1446               161.5835

                     58                     59                     60
                      A                      A                      A
 Frequencies --   2646.9282              2655.2757              2663.8927
 Red. masses --      1.0776                 1.0770                 1.0751
 Frc consts  --      4.4485                 4.4740                 4.4951
 IR Inten    --     13.0338                56.7325                84.1153

                     61                     62                     63
                      A                      A                      A
 Frequencies --   2669.1871              2694.7099              2695.4080
 Red. masses --      1.0836                 1.0684                 1.0880
 Frc consts  --      4.5487                 4.5709                 4.6574
 IR Inten    --    162.2777                59.0465               171.3553

                     64                     65                     66
                      A                      A                      A
 Frequencies --   2729.2475              2730.2600              2782.4176
 Red. masses --      1.0518                 1.0510                 1.0314
 Frc consts  --      4.6159                 4.6161                 4.7047
 IR Inten    --     84.4963                81.5219                86.5907

 - Thermochemistry -
 -------------------
 Temperature   298.150 Kelvin.  Pressure   1.00000 Atm.
 Atom     1 has atomic number  8 and mass  15.99491

 Molecular mass:   191.05556 amu.
 Principal axes and moments of inertia in atomic units:
                           1         2         3
     Eigenvalues --  1205.641534296.300654856.49497
           X           -0.58820   0.53893   0.60297
           Y            0.68056  -0.07291   0.72906
           Z            0.43687   0.83919  -0.32389
 This molecule is an asymmetric top.
 Rotational symmetry number  1.
 Warning -- assumption of classical behavior for rotation
           may cause significant error
 Rotational temperatures (Kelvin)      0.07184     0.02016     0.01783
 Rotational constants (GHZ):           1.49691     0.42007     0.37161
    1 imaginary frequencies ignored.
 Zero-point vibrational energy     428366.8 (Joules/Mol)
                                  102.38213 (Kcal/Mol)
 Warning -- explicit consideration of  22 degrees of freedom as
           vibrations may cause significant error
 Vibrational temperatures:     42.49    46.36    52.01   101.17   112.12
          (Kelvin)            118.06   161.67   176.12   216.92   280.41
                              352.88   380.60   387.07   525.92   543.34
                              606.57   642.46   713.31   736.11   753.45
                              854.61   871.96   928.57  1115.70  1190.71
                             1253.17  1307.54  1340.60  1400.73  1409.46
                             1444.49  1470.70  1497.31  1508.56  1569.20
                             1643.48  1666.69  1681.41  1693.96  1713.44
                             1723.51  1732.66  1754.23  1767.55  1797.22
                             1806.18  1812.83  1835.36  1862.96  1893.09
                             1908.70  2015.65  2585.36  2593.77  2761.90
                             3763.72  3808.33  3820.34  3832.74  3840.36
                             3877.08  3878.09  3926.77  3928.23  4003.27

 Zero-point correction=                           0.163156 (Hartree/Particle)
 Thermal correction to Energy=                    0.178129
 Thermal correction to Enthalpy=                  0.179073
 Thermal correction to Gibbs Free Energy=         0.117890
 Sum of electronic and zero-point Energies=              0.047972
 Sum of electronic and thermal Energies=                 0.062944
 Sum of electronic and thermal Enthalpies=               0.063888
 Sum of electronic and thermal Free Energies=            0.002706

                     E (Thermal)             CV                S
                      KCal/Mol        Cal/Mol-Kelvin    Cal/Mol-Kelvin
 Total                  111.777             51.673            128.769
 Electronic               0.000              0.000              1.377
 Translational            0.889              2.981             41.648
 Rotational               0.889              2.981             31.598
 Vibrational            110.000             45.711             54.146
 Vibration     1          0.593              1.984              5.861
 Vibration     2          0.594              1.983              5.688
 Vibration     3          0.594              1.982              5.460
 Vibration     4          0.598              1.968              4.144
 Vibration     5          0.599              1.964              3.942
 Vibration     6          0.600              1.961              3.841
 Vibration     7          0.607              1.939              3.228
 Vibration     8          0.610              1.930              3.062
 Vibration     9          0.618              1.902              2.662
 Vibration    10          0.636              1.847              2.181
 Vibration    11          0.660              1.771              1.764
 Vibration    12          0.671              1.738              1.632
 Vibration    13          0.673              1.730              1.602
 Vibration    14          0.739              1.543              1.098
 Vibration    15          0.748              1.518              1.049
 Vibration    16          0.784              1.423              0.887
 Vibration    17          0.806              1.369              0.806
 Vibration    18          0.851              1.259              0.669
 Vibration    19          0.867              1.224              0.630
 Vibration    20          0.879              1.198              0.601
 Vibration    21          0.952              1.045              0.460
 Vibration    22          0.965              1.019              0.439

 Normal termination of Gaussian 09 at Sat Feb  6 22:32:41 2021.
