 Gaussian 09, Revision D.01,
 Gaussian 09:  ES64L-G09RevD.01 24-Apr-2013

 ----------------------------------------------------------------------
 #P b3lyp/3-21G scf=qc opt(calcall, ts, noeigentest, cartesian,maxcycle
 =100)
 ----------------------------------------------------------------------

 ------------------------------
 Gaussian input prepared by ASE
 ------------------------------
 Symbolic Z-matrix:
 Charge =  0 Multiplicity = 2

 SCF Done:  E(UB3LYP) =  -191.306323595     a.u. after    8 cycles

 The electronic state is 2-A.
 Alpha  occ. eigenvalues --  -19.07023 -10.19018 -10.14577 -10.12295  -1.05546
 Alpha  occ. eigenvalues --   -0.81724  -0.66900  -0.57863  -0.51421  -0.44855
 Alpha  occ. eigenvalues --   -0.44189  -0.38893  -0.36260  -0.32993  -0.22743
 Alpha  occ. eigenvalues --   -0.20021
 Alpha virt. eigenvalues --    0.04277   0.06664   0.13416   0.14923   0.18265
 Alpha virt. eigenvalues --    0.20080   0.21908   0.34238   0.40690   0.69276
 Alpha virt. eigenvalues --    0.70973   0.72083   0.73335   0.80451   0.80617

  Beta  occ. eigenvalues --  -19.07047 -10.19182 -10.13635 -10.11222  -1.05613
  Beta  occ. eigenvalues --   -0.80153  -0.65023  -0.57054  -0.50199  -0.44321
  Beta  occ. eigenvalues --   -0.43556  -0.36576  -0.36350  -0.32198  -0.21788
  Beta virt. eigenvalues --   -0.06962   0.04971   0.06739   0.14502   0.16175
  Beta virt. eigenvalues --    0.19394   0.20725   0.22389   0.35061   0.42001
  Beta virt. eigenvalues --    0.69672   0.72719   0.73291   0.74214   0.81248

 Mulliken charges and spin densities:
               1          2
     1  C   -0.529056   0.620249
     2  C    0.216396  -0.139764
     3  H    0.209328  -0.022480
     4  H    0.209323  -0.022469
     5  H    0.214391  -0.124181
     6  C   -0.304444   0.670212
     7  H    0.189399   0.025131
     8  O   -0.565725  -0.007520
     9  H    0.360387   0.000821
 Sum of Mulliken charges =   0.00000   1.00000

 Dipole moment (field-independent basis, Debye):
    X=              0.0673    Y=             -2.1507    Z=             -0.0010  Tot=              2.1518
 Quadrupole moment (field-independent basis, Debye-Ang):
   XX=            -25.9404   YY=            -20.7447   ZZ=            -25.8568
   XY=             -2.1692   XZ=             -0.0025   YZ=              0.0020

  Exact polarizability:  33.866  -2.118  47.995   0.000   0.001  17.185
 Approx polarizability:  51.437  -9.749  79.423   0.003   0.000  21.298

 Optimization completed.
    -- Stationary point found.

                         Standard orientation:
 ---------------------------------------------------------------------
 Center     Atomic      Atomic             Coordinates (Angstroms)
 Number     Number       Type             X           Y           Z
 ---------------------------------------------------------------------
      1          6           0       -1.037723   -0.898190    0.000035
      2          6           0        0.116150    0.088160   -0.000029
      3          1           0       -1.249117   -1.437541    0.923512
      4          1           0       -1.249256   -1.437546   -0.923407
      5          1           0       -1.694679    0.363476   -0.000007
      6          6           0       -0.554620    1.241318   -0.000060
      7          1           0       -0.351937    2.302326    0.000108
      8          8           0        1.470380   -0.155672    0.000087
      9          1           0        1.639110   -1.133057   -0.000585
 ---------------------------------------------------------------------

 ******    1 imaginary frequencies (negative Signs) ******

                      1                      2                      3
                      A                      A                      A
 Frequencies --  -2203.3184               213.5105               413.8948
 Red. masses --      1.0811                 1.1983                 3.1155
 Frc consts  --      3.0923                 0.0322                 0.3145
 IR Inten    --      1.6522               104.9686                 3.5437

                      4                      5                      6
                      A                      A                      A
 Frequencies --    469.5575               484.3449               605.8337
 Red. masses --      1.0792                 1.8274                 3.3055
 Frc consts  --      0.1402                 0.2526                 0.7148
 IR Inten    --      9.6713                35.5488                10.3979

                      7                      8                      9
                      A                      A                      A
 Frequencies --    675.1132               879.8669               970.7820
 Red. masses --      1.5070                 4.8269                 1.3845
 Frc consts  --      0.4047                 2.2017                 0.7688
 IR Inten    --     76.2871                37.5491                47.5562

                     10                     11                     12
                      A                      A                      A
 Frequencies --   1003.7488              1056.2507              1091.0681
 Red. masses --      1.3332                 1.3227                 1.1268
 Frc consts  --      0.7914                 0.8694                 0.7903
 IR Inten    --     21.1273                14.8131                 8.9503

                     13                     14                     15
                      A                      A                      A
 Frequencies --   1200.0881              1270.6881              1474.5052
 Red. masses --      2.1151                 2.1450                 1.1386
 Frc consts  --      1.7947                 2.0406                 1.4586
 IR Inten    --      0.7837               289.5580                 0.2258

                     16                     17                     18
                      A                      A                      A
 Frequencies --   1700.2131              1859.2764              3094.8229
 Red. masses --      3.2028                 1.2134                 1.0483
 Frc consts  --      5.4548                 2.4714                 5.9158
 IR Inten    --     55.3954                16.9201                12.2428

                     19                     20                     21
                      A                      A                      A
 Frequencies --   3188.9884              3242.1914              3522.8950
 Red. masses --      1.1152                 1.1043                 1.0662
 Frc consts  --      6.6821                 6.8396                 7.7959
 IR Inten    --     16.6032                 0.3417                29.6032

 - Thermochemistry -
 -------------------
 Temperature   298.150 Kelvin.  Pressure   1.00000 Atm.
 Atom     1 has atomic number  6 and mass  12.00000

 Molecular mass:    57.03404 amu.
 Principal axes and moments of inertia in atomic units:
                           1         2         3
     Eigenvalues --   147.37038 220.72672 355.82048
           X            0.99984   0.01810  -0.00002
           Y           -0.01810   0.99984   0.00002
           Z            0.00002  -0.00002   1.00000
 This molecule is an asymmetric top.
 Rotational symmetry number  1.
 Rotational temperatures (Kelvin)      0.58773     0.39240     0.24342
 Rotational constants (GHZ):          12.24630     8.17636     5.07206
    1 imaginary frequencies ignored.
 Zero-point vibrational energy     169975.2 (Joules/Mol)
                                   40.62505 (Kcal/Mol)
 Warning -- explicit consideration of   5 degrees of freedom as
           vibrations may cause significant error
 Vibrational temperatures:    307.19   595.50   675.59   696.86   871.66
          (Kelvin)            971.34  1265.93  1396.74  1444.17  1519.71
                             1569.80  1726.66  1828.23  2121.48  2446.22
                             2675.08  4452.75  4588.24  4664.78  5068.65

 Zero-point correction=                           0.064740 (Hartree/Particle)
 Thermal correction to Energy=                    0.069401
 Thermal correction to Enthalpy=                  0.070345
 Thermal correction to Gibbs Free Energy=         0.037511
 Sum of electronic and zero-point Energies=           -191.241583
 Sum of electronic and thermal Energies=              -191.236922
 Sum of electronic and thermal Enthalpies=            -191.235978
 Sum of electronic and thermal Free Energies=         -191.268813

                     E (Thermal)             CV                S
                      KCal/Mol        Cal/Mol-Kelvin    Cal/Mol-Kelvin
 Total                   43.550             16.147             69.106
 Electronic               0.000              0.000              1.377
 Translational            0.889              2.981             38.044
 Rotational               0.889              2.981             23.963
 Vibrational             41.773             10.186              5.721
 Vibration     1          0.644              1.820              2.013
 Vibration     2          0.777              1.440              0.913
 Vibration     3          0.827              1.318              0.739
 Vibration     4          0.840              1.285              0.698
 Vibration     5          0.964              1.019              0.440

 Normal termination of Gaussian 09 at Thu Jan  7 22:08:57 2021.
